<?xml version="1.0"?> 
<VTKFile type="StructuredGrid" version="0.1"> 
<StructuredGrid WholeExtent="0 100 0 100 0 0"> 
<Piece Extent="0 100 0 100 0 0"> 
<PointData Vectors="Displ">
<DataArray type="Float32" Name="Displ" format="ascii" NumberOfComponents="3"> 
-0.000183766 0 0 -0.000183722 -2.60481e-06 0 -0.000183648 -5.2246e-06 0 -0.000183542 -7.8586e-06 0 -0.000183403 -1.05061e-05 0 -0.000183229 -1.31662e-05 0 -0.000183018 -1.58381e-05 0 -0.00018277 -1.85209e-05 0 -0.000182482 -2.12139e-05 0 -0.000182153 -2.39159e-05 0 -0.000181781 -2.66262e-05 0 -0.000181366 -2.93438e-05 0 -0.000180906 -3.20678e-05 0 -0.000180402 -3.47973e-05 0 -0.000179853 -3.75313e-05 0 -0.000179258 -4.0269e-05 0 -0.000178619 -4.30093e-05 0 -0.000177934 -4.57514e-05 0 -0.000177204 -4.84941e-05 0 -0.000176429 -5.12366e-05 0 -0.000175608 -5.39777e-05 0 -0.000174741 -5.67165e-05 0 -0.000173829 -5.94517e-05 0 -0.000172871 -6.21823e-05 0 -0.000171867 -6.49072e-05 0 -0.000170816 -6.76251e-05 0 -0.000169719 -7.03349e-05 0 -0.000168575 -7.30354e-05 0 -0.000167385 -7.57255e-05 0 -0.000166148 -7.84039e-05 0 -0.000164865 -8.10694e-05 0 -0.000163535 -8.37209e-05 0 -0.000162159 -8.63572e-05 0 -0.000160736 -8.89771e-05 0 -0.000159268 -9.15794e-05 0 -0.000157754 -9.41631e-05 0 -0.000156195 -9.67268e-05 0 -0.000154591 -9.92696e-05 0 -0.000152942 -0.00010179 0 -0.00015125 -0.000104287 0 -0.000149515 -0.00010676 0 -0.000147736 -0.000109208 0 -0.000145916 -0.000111628 0 -0.000144054 -0.000114021 0 -0.00014215 -0.000116386 0 -0.000140207 -0.00011872 0 -0.000138223 -0.000121023 0 -0.000136201 -0.000123295 0 -0.000134141 -0.000125534 0 -0.000132043 -0.000127739 0 -0.000129909 -0.000129909 0 -0.000127739 -0.000132043 0 -0.000125534 -0.000134141 0 -0.000123295 -0.000136201 0 -0.000121023 -0.000138223 0 -0.00011872 -0.000140207 0 -0.000116386 -0.00014215 0 -0.000114021 -0.000144054 0 -0.000111628 -0.000145916 0 -0.000109208 -0.000147736 0 -0.00010676 -0.000149515 0 -0.000104287 -0.00015125 0 -0.00010179 -0.000152942 0 -9.92696e-05 -0.000154591 0 -9.67268e-05 -0.000156195 0 -9.41631e-05 -0.000157754 0 -9.15794e-05 -0.000159268 0 -8.89771e-05 -0.000160736 0 -8.63572e-05 -0.000162159 0 -8.37209e-05 -0.000163535 0 -8.10694e-05 -0.000164865 0 -7.84039e-05 -0.000166148 0 -7.57255e-05 -0.000167385 0 -7.30354e-05 -0.000168575 0 -7.03349e-05 -0.000169719 0 -6.76251e-05 -0.000170816 0 -6.49072e-05 -0.000171867 0 -6.21823e-05 -0.000172871 0 -5.94517e-05 -0.000173829 0 -5.67165e-05 -0.000174741 0 -5.39777e-05 -0.000175608 0 -5.12366e-05 -0.000176429 0 -4.84941e-05 -0.000177204 0 -4.57514e-05 -0.000177934 0 -4.30093e-05 -0.000178619 0 -4.0269e-05 -0.000179258 0 -3.75313e-05 -0.000179853 0 -3.47973e-05 -0.000180402 0 -3.20678e-05 -0.000180906 0 -2.93438e-05 -0.000181366 0 -2.66262e-05 -0.000181781 0 -2.39159e-05 -0.000182153 0 -2.12139e-05 -0.000182482 0 -1.85209e-05 -0.00018277 0 -1.58381e-05 -0.000183018 0 -1.31662e-05 -0.000183229 0 -1.05061e-05 -0.000183403 0 -7.8586e-06 -0.000183542 0 -5.2246e-06 -0.000183648 0 -2.60481e-06 -0.000183722 0 0 -0.000183766 0 -0.000178039 0 0 -0.000178 -2.52411e-06 0 -0.000177931 -5.06254e-06 0 -0.00017783 -7.61461e-06 0 -0.000177696 -1.01796e-05 0 -0.000177528 -1.27567e-05 0 -0.000177323 -1.53452e-05 0 -0.000177082 -1.79443e-05 0 -0.000176803 -2.05531e-05 0 -0.000176483 -2.31709e-05 0 -0.000176123 -2.57967e-05 0 -0.00017572 -2.84296e-05 0 -0.000175274 -3.10688e-05 0 -0.000174785 -3.37133e-05 0 -0.000174253 -3.63624e-05 0 -0.000173677 -3.9015e-05 0 -0.000173058 -4.16702e-05 0 -0.000172395 -4.43271e-05 0 -0.000171688 -4.69847e-05 0 -0.000170937 -4.96419e-05 0 -0.000170141 -5.22979e-05 0 -0.000169302 -5.49514e-05 0 -0.000168418 -5.76015e-05 0 -0.00016749 -6.02471e-05 0 -0.000166517 -6.28871e-05 0 -0.000165499 -6.55203e-05 0 -0.000164436 -6.81456e-05 0 -0.000163328 -7.0762e-05 0 -0.000162175 -7.33682e-05 0 -0.000160976 -7.59631e-05 0 -0.000159733 -7.85456e-05 0 -0.000158444 -8.11145e-05 0 -0.000157111 -8.36687e-05 0 -0.000155732 -8.62071e-05 0 -0.00015431 -8.87284e-05 0 -0.000152843 -9.12317e-05 0 -0.000151332 -9.37157e-05 0 -0.000149778 -9.61793e-05 0 -0.000148181 -9.86215e-05 0 -0.000146542 -0.000101041 0 -0.00014486 -0.000103437 0 -0.000143138 -0.000105808 0 -0.000141374 -0.000108154 0 -0.000139569 -0.000110472 0 -0.000137725 -0.000112763 0 -0.000135842 -0.000115024 0 -0.000133921 -0.000117256 0 -0.000131961 -0.000119457 0 -0.000129965 -0.000121626 0 -0.000127933 -0.000123762 0 -0.000125865 -0.000125865 0 -0.000123762 -0.000127933 0 -0.000121626 -0.000129965 0 -0.000119457 -0.000131961 0 -0.000117256 -0.000133921 0 -0.000115024 -0.000135842 0 -0.000112763 -0.000137725 0 -0.000110472 -0.000139569 0 -0.000108154 -0.000141374 0 -0.000105808 -0.000143138 0 -0.000103437 -0.00014486 0 -0.000101041 -0.000146542 0 -9.86215e-05 -0.000148181 0 -9.61793e-05 -0.000149778 0 -9.37157e-05 -0.000151332 0 -9.12317e-05 -0.000152843 0 -8.87284e-05 -0.00015431 0 -8.62071e-05 -0.000155732 0 -8.36687e-05 -0.000157111 0 -8.11145e-05 -0.000158444 0 -7.85456e-05 -0.000159733 0 -7.59631e-05 -0.000160976 0 -7.33682e-05 -0.000162175 0 -7.0762e-05 -0.000163328 0 -6.81456e-05 -0.000164436 0 -6.55203e-05 -0.000165499 0 -6.28871e-05 -0.000166517 0 -6.02471e-05 -0.00016749 0 -5.76015e-05 -0.000168418 0 -5.49514e-05 -0.000169302 0 -5.22979e-05 -0.000170141 0 -4.96419e-05 -0.000170937 0 -4.69847e-05 -0.000171688 0 -4.43271e-05 -0.000172395 0 -4.16702e-05 -0.000173058 0 -3.9015e-05 -0.000173677 0 -3.63624e-05 -0.000174253 0 -3.37133e-05 -0.000174785 0 -3.10688e-05 -0.000175274 0 -2.84296e-05 -0.00017572 0 -2.57967e-05 -0.000176123 0 -2.31709e-05 -0.000176483 0 -2.05531e-05 -0.000176803 0 -1.79443e-05 -0.000177082 0 -1.53452e-05 -0.000177323 0 -1.27567e-05 -0.000177528 0 -1.01796e-05 -0.000177696 0 -7.61461e-06 -0.00017783 0 -5.06254e-06 -0.000177931 0 -2.52411e-06 -0.000178 0 0 -0.000178039 0 -0.000173552 0 0 -0.000173517 -2.46087e-06 0 -0.000173452 -4.93557e-06 0 -0.000173355 -7.42345e-06 0 -0.000173226 -9.92382e-06 0 -0.000173062 -1.2436e-05 0 -0.000172863 -1.49592e-05 0 -0.000172627 -1.74926e-05 0 -0.000172354 -2.00356e-05 0 -0.000172042 -2.25873e-05 0 -0.00017169 -2.51469e-05 0 -0.000171297 -2.77135e-05 0 -0.000170862 -3.02863e-05 0 -0.000170386 -3.28643e-05 0 -0.000169867 -3.54468e-05 0 -0.000169306 -3.80328e-05 0 -0.000168702 -4.06214e-05 0 -0.000168056 -4.32115e-05 0 -0.000167367 -4.58024e-05 0 -0.000166635 -4.83929e-05 0 -0.00016586 -5.0982e-05 0 -0.000165042 -5.35689e-05 0 -0.00016418 -5.61523e-05 0 -0.000163275 -5.87313e-05 0 -0.000162327 -6.13047e-05 0 -0.000161335 -6.38716e-05 0 -0.000160298 -6.64308e-05 0 -0.000159218 -6.89812e-05 0 -0.000158094 -7.15218e-05 0 -0.000156925 -7.40513e-05 0 -0.000155713 -7.65688e-05 0 -0.000154457 -7.9073e-05 0 -0.000153157 -8.15629e-05 0 -0.000151813 -8.40374e-05 0 -0.000150426 -8.64953e-05 0 -0.000148996 -8.89356e-05 0 -0.000147524 -9.13571e-05 0 -0.000146009 -9.37588e-05 0 -0.000144452 -9.61395e-05 0 -0.000142854 -9.84983e-05 0 -0.000141215 -0.000100834 0 -0.000139535 -0.000103145 0 -0.000137816 -0.000105432 0 -0.000136057 -0.000107692 0 -0.000134259 -0.000109925 0 -0.000132424 -0.00011213 0 -0.00013055 -0.000114305 0 -0.00012864 -0.000116451 0 -0.000126694 -0.000118565 0 -0.000124713 -0.000120648 0 -0.000122697 -0.000122697 0 -0.000120648 -0.000124713 0 -0.000118565 -0.000126694 0 -0.000116451 -0.00012864 0 -0.000114305 -0.00013055 0 -0.00011213 -0.000132424 0 -0.000109925 -0.000134259 0 -0.000107692 -0.000136057 0 -0.000105432 -0.000137816 0 -0.000103145 -0.000139535 0 -0.000100834 -0.000141215 0 -9.84983e-05 -0.000142854 0 -9.61395e-05 -0.000144452 0 -9.37588e-05 -0.000146009 0 -9.13571e-05 -0.000147524 0 -8.89356e-05 -0.000148996 0 -8.64953e-05 -0.000150426 0 -8.40374e-05 -0.000151813 0 -8.15629e-05 -0.000153157 0 -7.9073e-05 -0.000154457 0 -7.65688e-05 -0.000155713 0 -7.40513e-05 -0.000156925 0 -7.15218e-05 -0.000158094 0 -6.89812e-05 -0.000159218 0 -6.64308e-05 -0.000160298 0 -6.38716e-05 -0.000161335 0 -6.13047e-05 -0.000162327 0 -5.87313e-05 -0.000163275 0 -5.61523e-05 -0.00016418 0 -5.35689e-05 -0.000165042 0 -5.0982e-05 -0.00016586 0 -4.83929e-05 -0.000166635 0 -4.58024e-05 -0.000167367 0 -4.32115e-05 -0.000168056 0 -4.06214e-05 -0.000168702 0 -3.80328e-05 -0.000169306 0 -3.54468e-05 -0.000169867 0 -3.28643e-05 -0.000170386 0 -3.02863e-05 -0.000170862 0 -2.77135e-05 -0.000171297 0 -2.51469e-05 -0.00017169 0 -2.25873e-05 -0.000172042 0 -2.00356e-05 -0.000172354 0 -1.74926e-05 -0.000172627 0 -1.49592e-05 -0.000172863 0 -1.2436e-05 -0.000173062 0 -9.92382e-06 -0.000173226 0 -7.42345e-06 -0.000173355 0 -4.93557e-06 -0.000173452 0 -2.46087e-06 -0.000173517 0 0 -0.000173552 0 -0.000170195 0 0 -0.000170163 -2.41353e-06 0 -0.000170101 -4.84054e-06 0 -0.000170007 -7.28038e-06 0 -0.000169881 -9.73241e-06 0 -0.000169721 -1.21959e-05 0 -0.000169526 -1.46703e-05 0 -0.000169294 -1.71547e-05 0 -0.000169026 -1.96484e-05 0 -0.000168719 -2.21507e-05 0 -0.000168374 -2.46608e-05 0 -0.000167988 -2.71777e-05 0 -0.000167561 -2.97008e-05 0 -0.000167094 -3.22291e-05 0 -0.000166585 -3.47618e-05 0 -0.000166035 -3.72979e-05 0 -0.000165443 -3.98366e-05 0 -0.000164809 -4.23768e-05 0 -0.000164134 -4.49177e-05 0 -0.000163416 -4.74583e-05 0 -0.000162656 -4.99975e-05 0 -0.000161854 -5.25344e-05 0 -0.000161009 -5.50679e-05 0 -0.000160122 -5.7597e-05 0 -0.000159192 -6.01208e-05 0 -0.000158218 -6.2638e-05 0 -0.000157202 -6.51477e-05 0 -0.000156143 -6.76488e-05 0 -0.00015504 -7.01402e-05 0 -0.000153894 -7.26209e-05 0 -0.000152705 -7.50896e-05 0 -0.000151473 -7.75455e-05 0 -0.000150198 -7.99873e-05 0 -0.000148881 -8.2414e-05 0 -0.00014752 -8.48244e-05 0 -0.000146118 -8.72176e-05 0 -0.000144674 -8.95924e-05 0 -0.000143189 -9.19477e-05 0 -0.000141662 -9.42825e-05 0 -0.000140095 -9.65957e-05 0 -0.000138487 -9.88863e-05 0 -0.00013684 -0.000101153 0 -0.000135154 -0.000103395 0 -0.000133429 -0.000105612 0 -0.000131666 -0.000107802 0 -0.000129866 -0.000109964 0 -0.000128029 -0.000112097 0 -0.000126156 -0.000114201 0 -0.000124247 -0.000116275 0 -0.000122304 -0.000118317 0 -0.000120327 -0.000120327 0 -0.000118317 -0.000122304 0 -0.000116275 -0.000124247 0 -0.000114201 -0.000126156 0 -0.000112097 -0.000128029 0 -0.000109964 -0.000129866 0 -0.000107802 -0.000131666 0 -0.000105612 -0.000133429 0 -0.000103395 -0.000135154 0 -0.000101153 -0.00013684 0 -9.88863e-05 -0.000138487 0 -9.65957e-05 -0.000140095 0 -9.42825e-05 -0.000141662 0 -9.19477e-05 -0.000143189 0 -8.95924e-05 -0.000144674 0 -8.72176e-05 -0.000146118 0 -8.48244e-05 -0.00014752 0 -8.2414e-05 -0.000148881 0 -7.99873e-05 -0.000150198 0 -7.75455e-05 -0.000151473 0 -7.50896e-05 -0.000152705 0 -7.26209e-05 -0.000153894 0 -7.01402e-05 -0.00015504 0 -6.76488e-05 -0.000156143 0 -6.51477e-05 -0.000157202 0 -6.2638e-05 -0.000158218 0 -6.01208e-05 -0.000159192 0 -5.7597e-05 -0.000160122 0 -5.50679e-05 -0.000161009 0 -5.25344e-05 -0.000161854 0 -4.99975e-05 -0.000162656 0 -4.74583e-05 -0.000163416 0 -4.49177e-05 -0.000164134 0 -4.23768e-05 -0.000164809 0 -3.98366e-05 -0.000165443 0 -3.72979e-05 -0.000166035 0 -3.47618e-05 -0.000166585 0 -3.22291e-05 -0.000167094 0 -2.97008e-05 -0.000167561 0 -2.71777e-05 -0.000167988 0 -2.46608e-05 -0.000168374 0 -2.21507e-05 -0.000168719 0 -1.96484e-05 -0.000169026 0 -1.71547e-05 -0.000169294 0 -1.46703e-05 -0.000169526 0 -1.21959e-05 -0.000169721 0 -9.73241e-06 -0.000169881 0 -7.28038e-06 -0.000170007 0 -4.84054e-06 -0.000170101 0 -2.41353e-06 -0.000170163 0 0 -0.000170195 0 -0.000167854 0 0 -0.000167826 -2.38052e-06 0 -0.000167766 -4.77428e-06 0 -0.000167675 -7.18066e-06 0 -0.000167551 -9.59901e-06 0 -0.000167393 -1.20287e-05 0 -0.0001672 -1.4469e-05 0 -0.000166972 -1.69192e-05 0 -0.000166707 -1.93787e-05 0 -0.000166404 -2.18465e-05 0 -0.000166063 -2.43221e-05 0 -0.000165682 -2.68045e-05 0 -0.000165261 -2.92929e-05 0 -0.0001648 -3.17866e-05 0 -0.000164298 -3.42845e-05 0 -0.000163756 -3.67859e-05 0 -0.000163172 -3.92898e-05 0 -0.000162547 -4.17952e-05 0 -0.000161881 -4.43013e-05 0 -0.000161173 -4.6807e-05 0 -0.000160424 -4.93115e-05 0 -0.000159633 -5.18135e-05 0 -0.0001588 -5.43123e-05 0 -0.000157925 -5.68067e-05 0 -0.000157007 -5.92958e-05 0 -0.000156047 -6.17785e-05 0 -0.000155045 -6.42537e-05 0 -0.000154 -6.67204e-05 0 -0.000152912 -6.91776e-05 0 -0.000151782 -7.16242e-05 0 -0.00015061 -7.40591e-05 0 -0.000149394 -7.64812e-05 0 -0.000148137 -7.88895e-05 0 -0.000146837 -8.12828e-05 0 -0.000145496 -8.36602e-05 0 -0.000144113 -8.60206e-05 0 -0.000142689 -8.83628e-05 0 -0.000141223 -9.06858e-05 0 -0.000139718 -9.29885e-05 0 -0.000138172 -9.527e-05 0 -0.000136587 -9.75292e-05 0 -0.000134962 -9.9765e-05 0 -0.000133299 -0.000101976 0 -0.000131598 -0.000104163 0 -0.000129859 -0.000106322 0 -0.000128084 -0.000108455 0 -0.000126272 -0.000110559 0 -0.000124424 -0.000112634 0 -0.000122542 -0.000114679 0 -0.000120626 -0.000116693 0 -0.000118676 -0.000118676 0 -0.000116693 -0.000120626 0 -0.000114679 -0.000122542 0 -0.000112634 -0.000124424 0 -0.000110559 -0.000126272 0 -0.000108455 -0.000128084 0 -0.000106322 -0.000129859 0 -0.000104163 -0.000131598 0 -0.000101976 -0.000133299 0 -9.9765e-05 -0.000134962 0 -9.75292e-05 -0.000136587 0 -9.527e-05 -0.000138172 0 -9.29885e-05 -0.000139718 0 -9.06858e-05 -0.000141223 0 -8.83628e-05 -0.000142689 0 -8.60206e-05 -0.000144113 0 -8.36602e-05 -0.000145496 0 -8.12828e-05 -0.000146837 0 -7.88895e-05 -0.000148137 0 -7.64812e-05 -0.000149394 0 -7.40591e-05 -0.00015061 0 -7.16242e-05 -0.000151782 0 -6.91776e-05 -0.000152912 0 -6.67204e-05 -0.000154 0 -6.42537e-05 -0.000155045 0 -6.17785e-05 -0.000156047 0 -5.92958e-05 -0.000157007 0 -5.68067e-05 -0.000157925 0 -5.43123e-05 -0.0001588 0 -5.18135e-05 -0.000159633 0 -4.93115e-05 -0.000160424 0 -4.6807e-05 -0.000161173 0 -4.43013e-05 -0.000161881 0 -4.17952e-05 -0.000162547 0 -3.92898e-05 -0.000163172 0 -3.67859e-05 -0.000163756 0 -3.42845e-05 -0.000164298 0 -3.17866e-05 -0.0001648 0 -2.92929e-05 -0.000165261 0 -2.68045e-05 -0.000165682 0 -2.43221e-05 -0.000166063 0 -2.18465e-05 -0.000166404 0 -1.93787e-05 -0.000166707 0 -1.69192e-05 -0.000166972 0 -1.4469e-05 -0.0001672 0 -1.20287e-05 -0.000167393 0 -9.59901e-06 -0.000167551 0 -7.18066e-06 -0.000167675 0 -4.77428e-06 -0.000167766 0 -2.38052e-06 -0.000167826 0 0 -0.000167854 0 -0.00016642 0 0 -0.000166394 -2.36028e-06 0 -0.000166336 -4.73366e-06 0 -0.000166246 -7.11953e-06 0 -0.000166124 -9.51726e-06 0 -0.000165968 -1.19262e-05 0 -0.000165777 -1.43457e-05 0 -0.00016555 -1.6775e-05 0 -0.000165287 -1.92134e-05 0 -0.000164986 -2.16602e-05 0 -0.000164647 -2.41146e-05 0 -0.000164269 -2.65759e-05 0 -0.000163852 -2.90431e-05 0 -0.000163394 -3.15155e-05 0 -0.000162897 -3.39922e-05 0 -0.000162359 -3.64723e-05 0 -0.000161781 -3.89549e-05 0 -0.000161161 -4.1439e-05 0 -0.000160501 -4.39237e-05 0 -0.0001598 -4.64081e-05 0 -0.000159057 -4.88912e-05 0 -0.000158273 -5.1372e-05 0 -0.000157447 -5.38494e-05 0 -0.000156579 -5.63226e-05 0 -0.000155669 -5.87904e-05 0 -0.000154718 -6.12519e-05 0 -0.000153724 -6.3706e-05 0 -0.000152687 -6.61517e-05 0 -0.000151609 -6.8588e-05 0 -0.000150489 -7.10137e-05 0 -0.000149326 -7.34278e-05 0 -0.000148121 -7.58292e-05 0 -0.000146874 -7.8217e-05 0 -0.000145586 -8.059e-05 0 -0.000144256 -8.29471e-05 0 -0.000142884 -8.52873e-05 0 -0.000141472 -8.76096e-05 0 -0.00014002 -8.99128e-05 0 -0.000138527 -9.21959e-05 0 -0.000136994 -9.44579e-05 0 -0.000135422 -9.66978e-05 0 -0.000133812 -9.89146e-05 0 -0.000132163 -0.000101107 0 -0.000130476 -0.000103275 0 -0.000128752 -0.000105416 0 -0.000126992 -0.00010753 0 -0.000125195 -0.000109617 0 -0.000123364 -0.000111674 0 -0.000121497 -0.000113702 0 -0.000119597 -0.000115699 0 -0.000117664 -0.000117664 0 -0.000115699 -0.000119597 0 -0.000113702 -0.000121497 0 -0.000111674 -0.000123364 0 -0.000109617 -0.000125195 0 -0.00010753 -0.000126992 0 -0.000105416 -0.000128752 0 -0.000103275 -0.000130476 0 -0.000101107 -0.000132163 0 -9.89146e-05 -0.000133812 0 -9.66978e-05 -0.000135422 0 -9.44579e-05 -0.000136994 0 -9.21959e-05 -0.000138527 0 -8.99128e-05 -0.00014002 0 -8.76096e-05 -0.000141472 0 -8.52873e-05 -0.000142884 0 -8.29471e-05 -0.000144256 0 -8.059e-05 -0.000145586 0 -7.8217e-05 -0.000146874 0 -7.58292e-05 -0.000148121 0 -7.34278e-05 -0.000149326 0 -7.10137e-05 -0.000150489 0 -6.8588e-05 -0.000151609 0 -6.61517e-05 -0.000152687 0 -6.3706e-05 -0.000153724 0 -6.12519e-05 -0.000154718 0 -5.87904e-05 -0.000155669 0 -5.63226e-05 -0.000156579 0 -5.38494e-05 -0.000157447 0 -5.1372e-05 -0.000158273 0 -4.88912e-05 -0.000159057 0 -4.64081e-05 -0.0001598 0 -4.39237e-05 -0.000160501 0 -4.1439e-05 -0.000161161 0 -3.89549e-05 -0.000161781 0 -3.64723e-05 -0.000162359 0 -3.39922e-05 -0.000162897 0 -3.15155e-05 -0.000163394 0 -2.90431e-05 -0.000163852 0 -2.65759e-05 -0.000164269 0 -2.41146e-05 -0.000164647 0 -2.16602e-05 -0.000164986 0 -1.92134e-05 -0.000165287 0 -1.6775e-05 -0.00016555 0 -1.43457e-05 -0.000165777 0 -1.19262e-05 -0.000165968 0 -9.51726e-06 -0.000166124 0 -7.11953e-06 -0.000166246 0 -4.73366e-06 -0.000166336 0 -2.36028e-06 -0.000166394 0 0 -0.00016642 0 -0.00016578 0 0 -0.000165755 -2.35124e-06 0 -0.000165699 -4.71552e-06 0 -0.00016561 -7.09225e-06 0 -0.000165489 -9.4808e-06 0 -0.000165333 -1.18805e-05 0 -0.000165143 -1.42907e-05 0 -0.000164917 -1.67107e-05 0 -0.000164654 -1.91398e-05 0 -0.000164354 -2.15772e-05 0 -0.000164016 -2.40223e-05 0 -0.00016364 -2.64741e-05 0 -0.000163224 -2.89319e-05 0 -0.000162768 -3.13948e-05 0 -0.000162272 -3.3862e-05 0 -0.000161737 -3.63326e-05 0 -0.000161161 -3.88056e-05 0 -0.000160544 -4.12803e-05 0 -0.000159886 -4.37555e-05 0 -0.000159188 -4.62304e-05 0 -0.000158448 -4.87039e-05 0 -0.000157667 -5.11752e-05 0 -0.000156844 -5.36432e-05 0 -0.000155979 -5.61069e-05 0 -0.000155073 -5.85653e-05 0 -0.000154125 -6.10173e-05 0 -0.000153135 -6.34621e-05 0 -0.000152103 -6.58984e-05 0 -0.000151029 -6.83253e-05 0 -0.000149912 -7.07417e-05 0 -0.000148754 -7.31466e-05 0 -0.000147554 -7.55388e-05 0 -0.000146311 -7.79174e-05 0 -0.000145028 -8.02813e-05 0 -0.000143703 -8.26294e-05 0 -0.000142337 -8.49607e-05 0 -0.00014093 -8.7274e-05 0 -0.000139483 -8.95684e-05 0 -0.000137996 -9.18428e-05 0 -0.00013647 -9.40962e-05 0 -0.000134904 -9.63275e-05 0 -0.000133299 -9.85357e-05 0 -0.000131657 -0.00010072 0 -0.000129976 -0.000102879 0 -0.000128259 -0.000105012 0 -0.000126505 -0.000107118 0 -0.000124716 -0.000109197 0 -0.000122891 -0.000111246 0 -0.000121032 -0.000113266 0 -0.000119139 -0.000115256 0 -0.000117214 -0.000117214 0 -0.000115256 -0.000119139 0 -0.000113266 -0.000121032 0 -0.000111246 -0.000122891 0 -0.000109197 -0.000124716 0 -0.000107118 -0.000126505 0 -0.000105012 -0.000128259 0 -0.000102879 -0.000129976 0 -0.00010072 -0.000131657 0 -9.85357e-05 -0.000133299 0 -9.63275e-05 -0.000134904 0 -9.40962e-05 -0.00013647 0 -9.18428e-05 -0.000137996 0 -8.95684e-05 -0.000139483 0 -8.7274e-05 -0.00014093 0 -8.49607e-05 -0.000142337 0 -8.26294e-05 -0.000143703 0 -8.02813e-05 -0.000145028 0 -7.79174e-05 -0.000146311 0 -7.55388e-05 -0.000147554 0 -7.31466e-05 -0.000148754 0 -7.07417e-05 -0.000149912 0 -6.83253e-05 -0.000151029 0 -6.58984e-05 -0.000152103 0 -6.34621e-05 -0.000153135 0 -6.10173e-05 -0.000154125 0 -5.85653e-05 -0.000155073 0 -5.61069e-05 -0.000155979 0 -5.36432e-05 -0.000156844 0 -5.11752e-05 -0.000157667 0 -4.87039e-05 -0.000158448 0 -4.62304e-05 -0.000159188 0 -4.37555e-05 -0.000159886 0 -4.12803e-05 -0.000160544 0 -3.88056e-05 -0.000161161 0 -3.63326e-05 -0.000161737 0 -3.3862e-05 -0.000162272 0 -3.13948e-05 -0.000162768 0 -2.89319e-05 -0.000163224 0 -2.64741e-05 -0.00016364 0 -2.40223e-05 -0.000164016 0 -2.15772e-05 -0.000164354 0 -1.91398e-05 -0.000164654 0 -1.67107e-05 -0.000164917 0 -1.42907e-05 -0.000165143 0 -1.18805e-05 -0.000165333 0 -9.4808e-06 -0.000165489 0 -7.09225e-06 -0.00016561 0 -4.71552e-06 -0.000165699 0 -2.35124e-06 -0.000165755 0 0 -0.00016578 0 -0.000165822 0 0 -0.000165798 -2.35183e-06 0 -0.000165743 -4.71672e-06 0 -0.000165655 -7.09408e-06 0 -0.000165534 -9.48327e-06 0 -0.000165378 -1.18836e-05 0 -0.000165188 -1.42945e-05 0 -0.000164962 -1.67152e-05 0 -0.000164699 -1.9145e-05 0 -0.000164398 -2.15831e-05 0 -0.00016406 -2.40288e-05 0 -0.000163683 -2.64812e-05 0 -0.000163267 -2.89397e-05 0 -0.000162811 -3.14033e-05 0 -0.000162315 -3.38711e-05 0 -0.00016178 -3.63424e-05 0 -0.000161204 -3.88161e-05 0 -0.000160587 -4.12913e-05 0 -0.000159929 -4.37672e-05 0 -0.00015923 -4.62427e-05 0 -0.00015849 -4.87169e-05 0 -0.000157709 -5.11889e-05 0 -0.000156886 -5.36575e-05 0 -0.000156021 -5.61219e-05 0 -0.000155115 -5.85809e-05 0 -0.000154167 -6.10337e-05 0 -0.000153176 -6.34791e-05 0 -0.000152144 -6.59161e-05 0 -0.000151069 -6.83436e-05 0 -0.000149952 -7.07607e-05 0 -0.000148794 -7.31662e-05 0 -0.000147593 -7.55591e-05 0 -0.000146351 -7.79384e-05 0 -0.000145067 -8.03029e-05 0 -0.000143741 -8.26516e-05 0 -0.000142375 -8.49834e-05 0 -0.000140968 -8.72974e-05 0 -0.000139521 -8.95924e-05 0 -0.000138033 -9.18674e-05 0 -0.000136506 -9.41214e-05 0 -0.00013494 -9.63533e-05 0 -0.000133335 -9.85621e-05 0 -0.000131692 -0.000100747 0 -0.000130011 -0.000102907 0 -0.000128294 -0.00010504 0 -0.000126539 -0.000107147 0 -0.000124749 -0.000109226 0 -0.000122924 -0.000111276 0 -0.000121065 -0.000113297 0 -0.000119171 -0.000115286 0 -0.000117245 -0.000117245 0 -0.000115286 -0.000119171 0 -0.000113297 -0.000121065 0 -0.000111276 -0.000122924 0 -0.000109226 -0.000124749 0 -0.000107147 -0.000126539 0 -0.00010504 -0.000128294 0 -0.000102907 -0.000130011 0 -0.000100747 -0.000131692 0 -9.85621e-05 -0.000133335 0 -9.63533e-05 -0.00013494 0 -9.41214e-05 -0.000136506 0 -9.18674e-05 -0.000138033 0 -8.95924e-05 -0.000139521 0 -8.72974e-05 -0.000140968 0 -8.49834e-05 -0.000142375 0 -8.26516e-05 -0.000143741 0 -8.03029e-05 -0.000145067 0 -7.79384e-05 -0.000146351 0 -7.55591e-05 -0.000147593 0 -7.31662e-05 -0.000148794 0 -7.07607e-05 -0.000149952 0 -6.83436e-05 -0.000151069 0 -6.59161e-05 -0.000152144 0 -6.34791e-05 -0.000153176 0 -6.10337e-05 -0.000154167 0 -5.85809e-05 -0.000155115 0 -5.61219e-05 -0.000156021 0 -5.36575e-05 -0.000156886 0 -5.11889e-05 -0.000157709 0 -4.87169e-05 -0.00015849 0 -4.62427e-05 -0.00015923 0 -4.37672e-05 -0.000159929 0 -4.12913e-05 -0.000160587 0 -3.88161e-05 -0.000161204 0 -3.63424e-05 -0.00016178 0 -3.38711e-05 -0.000162315 0 -3.14033e-05 -0.000162811 0 -2.89397e-05 -0.000163267 0 -2.64812e-05 -0.000163683 0 -2.40288e-05 -0.00016406 0 -2.15831e-05 -0.000164398 0 -1.9145e-05 -0.000164699 0 -1.67152e-05 -0.000164962 0 -1.42945e-05 -0.000165188 0 -1.18836e-05 -0.000165378 0 -9.48327e-06 -0.000165534 0 -7.09408e-06 -0.000165655 0 -4.71672e-06 -0.000165743 0 -2.35183e-06 -0.000165798 0 0 -0.000165822 0 -0.000166434 0 0 -0.000166412 -2.36048e-06 0 -0.000166357 -4.73411e-06 0 -0.00016627 -7.12027e-06 0 -0.000166148 -9.51832e-06 0 -0.000165992 -1.19276e-05 0 -0.000165801 -1.43475e-05 0 -0.000165574 -1.67771e-05 0 -0.000165309 -1.9216e-05 0 -0.000165008 -2.16631e-05 0 -0.000164668 -2.41179e-05 0 -0.00016429 -2.65795e-05 0 -0.000163872 -2.90471e-05 0 -0.000163414 -3.15198e-05 0 -0.000162917 -3.39968e-05 0 -0.000162379 -3.64771e-05 0 -0.000161801 -3.896e-05 0 -0.000161182 -4.14444e-05 0 -0.000160522 -4.39294e-05 0 -0.000159821 -4.64141e-05 0 -0.000159078 -4.88974e-05 0 -0.000158294 -5.13785e-05 0 -0.000157468 -5.38563e-05 0 -0.0001566 -5.63298e-05 0 -0.00015569 -5.8798e-05 0 -0.000154738 -6.12599e-05 0 -0.000153744 -6.37143e-05 0 -0.000152708 -6.61604e-05 0 -0.000151629 -6.8597e-05 0 -0.000150508 -7.1023e-05 0 -0.000149345 -7.34375e-05 0 -0.00014814 -7.58392e-05 0 -0.000146893 -7.82273e-05 0 -0.000145604 -8.06006e-05 0 -0.000144274 -8.2958e-05 0 -0.000142903 -8.52985e-05 0 -0.000141491 -8.7621e-05 0 -0.000140038 -8.99245e-05 0 -0.000138545 -9.22079e-05 0 -0.000137012 -9.44702e-05 0 -0.00013544 -9.67104e-05 0 -0.000133829 -9.89274e-05 0 -0.00013218 -0.00010112 0 -0.000130493 -0.000103288 0 -0.000128769 -0.00010543 0 -0.000127008 -0.000107544 0 -0.000125212 -0.000109631 0 -0.00012338 -0.000111689 0 -0.000121513 -0.000113717 0 -0.000119613 -0.000115714 0 -0.00011768 -0.00011768 0 -0.000115714 -0.000119613 0 -0.000113717 -0.000121513 0 -0.000111689 -0.00012338 0 -0.000109631 -0.000125212 0 -0.000107544 -0.000127008 0 -0.00010543 -0.000128769 0 -0.000103288 -0.000130493 0 -0.00010112 -0.00013218 0 -9.89274e-05 -0.000133829 0 -9.67104e-05 -0.00013544 0 -9.44702e-05 -0.000137012 0 -9.22079e-05 -0.000138545 0 -8.99245e-05 -0.000140038 0 -8.7621e-05 -0.000141491 0 -8.52985e-05 -0.000142903 0 -8.2958e-05 -0.000144274 0 -8.06006e-05 -0.000145604 0 -7.82273e-05 -0.000146893 0 -7.58392e-05 -0.00014814 0 -7.34375e-05 -0.000149345 0 -7.1023e-05 -0.000150508 0 -6.8597e-05 -0.000151629 0 -6.61604e-05 -0.000152708 0 -6.37143e-05 -0.000153744 0 -6.12599e-05 -0.000154738 0 -5.8798e-05 -0.00015569 0 -5.63298e-05 -0.0001566 0 -5.38563e-05 -0.000157468 0 -5.13785e-05 -0.000158294 0 -4.88974e-05 -0.000159078 0 -4.64141e-05 -0.000159821 0 -4.39294e-05 -0.000160522 0 -4.14444e-05 -0.000161182 0 -3.896e-05 -0.000161801 0 -3.64771e-05 -0.000162379 0 -3.39968e-05 -0.000162917 0 -3.15198e-05 -0.000163414 0 -2.90471e-05 -0.000163872 0 -2.65795e-05 -0.00016429 0 -2.41179e-05 -0.000164668 0 -2.16631e-05 -0.000165008 0 -1.9216e-05 -0.000165309 0 -1.67771e-05 -0.000165574 0 -1.43475e-05 -0.000165801 0 -1.19276e-05 -0.000165992 0 -9.51832e-06 -0.000166148 0 -7.12027e-06 -0.00016627 0 -4.73411e-06 -0.000166357 0 -2.36048e-06 -0.000166412 0 0 -0.000166434 0 -0.000167506 0 0 -0.000167484 -2.37563e-06 0 -0.00016743 -4.76453e-06 0 -0.000167342 -7.16606e-06 0 -0.00016722 -9.57959e-06 0 -0.000167063 -1.20044e-05 0 -0.000166871 -1.44399e-05 0 -0.000166642 -1.68853e-05 0 -0.000166376 -1.93399e-05 0 -0.000166072 -2.18029e-05 0 -0.00016573 -2.42736e-05 0 -0.000165349 -2.67511e-05 0 -0.000164928 -2.92345e-05 0 -0.000164468 -3.17232e-05 0 -0.000163967 -3.42161e-05 0 -0.000163426 -3.67124e-05 0 -0.000162844 -3.92112e-05 0 -0.000162221 -4.17116e-05 0 -0.000161557 -4.42127e-05 0 -0.000160851 -4.67133e-05 0 -0.000160104 -4.92127e-05 0 -0.000159315 -5.17098e-05 0 -0.000158484 -5.42036e-05 0 -0.00015761 -5.6693e-05 0 -0.000156694 -5.91771e-05 0 -0.000155736 -6.16549e-05 0 -0.000154736 -6.41252e-05 0 -0.000153693 -6.65871e-05 0 -0.000152607 -6.90394e-05 0 -0.000151479 -7.14811e-05 0 -0.000150308 -7.39111e-05 0 -0.000149095 -7.63284e-05 0 -0.00014784 -7.87319e-05 0 -0.000146543 -8.11204e-05 0 -0.000145205 -8.3493e-05 0 -0.000143824 -8.58486e-05 0 -0.000142403 -8.81861e-05 0 -0.000140941 -9.05044e-05 0 -0.000139438 -9.28026e-05 0 -0.000137896 -9.50795e-05 0 -0.000136314 -9.73341e-05 0 -0.000134692 -9.95654e-05 0 -0.000133033 -0.000101772 0 -0.000131335 -0.000103954 0 -0.0001296 -0.00010611 0 -0.000127828 -0.000108238 0 -0.000126019 -0.000110338 0 -0.000124176 -0.000112409 0 -0.000122297 -0.00011445 0 -0.000120384 -0.00011646 0 -0.000118439 -0.000118439 0 -0.00011646 -0.000120384 0 -0.00011445 -0.000122297 0 -0.000112409 -0.000124176 0 -0.000110338 -0.000126019 0 -0.000108238 -0.000127828 0 -0.00010611 -0.0001296 0 -0.000103954 -0.000131335 0 -0.000101772 -0.000133033 0 -9.95654e-05 -0.000134692 0 -9.73341e-05 -0.000136314 0 -9.50795e-05 -0.000137896 0 -9.28026e-05 -0.000139438 0 -9.05044e-05 -0.000140941 0 -8.81861e-05 -0.000142403 0 -8.58486e-05 -0.000143824 0 -8.3493e-05 -0.000145205 0 -8.11204e-05 -0.000146543 0 -7.87319e-05 -0.00014784 0 -7.63284e-05 -0.000149095 0 -7.39111e-05 -0.000150308 0 -7.14811e-05 -0.000151479 0 -6.90394e-05 -0.000152607 0 -6.65871e-05 -0.000153693 0 -6.41252e-05 -0.000154736 0 -6.16549e-05 -0.000155736 0 -5.91771e-05 -0.000156694 0 -5.6693e-05 -0.00015761 0 -5.42036e-05 -0.000158484 0 -5.17098e-05 -0.000159315 0 -4.92127e-05 -0.000160104 0 -4.67133e-05 -0.000160851 0 -4.42127e-05 -0.000161557 0 -4.17116e-05 -0.000162221 0 -3.92112e-05 -0.000162844 0 -3.67124e-05 -0.000163426 0 -3.42161e-05 -0.000163967 0 -3.17232e-05 -0.000164468 0 -2.92345e-05 -0.000164928 0 -2.67511e-05 -0.000165349 0 -2.42736e-05 -0.00016573 0 -2.18029e-05 -0.000166072 0 -1.93399e-05 -0.000166376 0 -1.68853e-05 -0.000166642 0 -1.44399e-05 -0.000166871 0 -1.20044e-05 -0.000167063 0 -9.57959e-06 -0.00016722 0 -7.16606e-06 -0.000167342 0 -4.76453e-06 -0.00016743 0 -2.37563e-06 -0.000167484 0 0 -0.000167506 0 -0.000168925 0 0 -0.000168904 -2.39572e-06 0 -0.00016885 -4.80484e-06 0 -0.000168762 -7.22673e-06 0 -0.000168639 -9.66073e-06 0 -0.00016848 -1.21062e-05 0 -0.000168286 -1.45624e-05 0 -0.000168055 -1.70285e-05 0 -0.000167787 -1.9504e-05 0 -0.00016748 -2.19879e-05 0 -0.000167135 -2.44795e-05 0 -0.000166751 -2.6978e-05 0 -0.000166326 -2.94826e-05 0 -0.000165862 -3.19923e-05 0 -0.000165357 -3.45063e-05 0 -0.000164812 -3.70238e-05 0 -0.000164225 -3.95438e-05 0 -0.000163597 -4.20654e-05 0 -0.000162927 -4.45876e-05 0 -0.000162215 -4.71094e-05 0 -0.000161462 -4.963e-05 0 -0.000160666 -5.21482e-05 0 -0.000159828 -5.46631e-05 0 -0.000158947 -5.71737e-05 0 -0.000158023 -5.96789e-05 0 -0.000157057 -6.21777e-05 0 -0.000156048 -6.4669e-05 0 -0.000154996 -6.71517e-05 0 -0.000153901 -6.96248e-05 0 -0.000152763 -7.20873e-05 0 -0.000151583 -7.45379e-05 0 -0.00015036 -7.69757e-05 0 -0.000149094 -7.93996e-05 0 -0.000147786 -8.18084e-05 0 -0.000146436 -8.42011e-05 0 -0.000145044 -8.65767e-05 0 -0.000143611 -8.8934e-05 0 -0.000142136 -9.12719e-05 0 -0.000140621 -9.35896e-05 0 -0.000139065 -9.58857e-05 0 -0.00013747 -9.81595e-05 0 -0.000135835 -0.00010041 0 -0.000134161 -0.000102635 0 -0.000132449 -0.000104836 0 -0.000130699 -0.000107009 0 -0.000128912 -0.000109156 0 -0.000127088 -0.000111274 0 -0.000125229 -0.000113362 0 -0.000123334 -0.00011542 0 -0.000121405 -0.000117448 0 -0.000119443 -0.000119443 0 -0.000117448 -0.000121405 0 -0.00011542 -0.000123334 0 -0.000113362 -0.000125229 0 -0.000111274 -0.000127088 0 -0.000109156 -0.000128912 0 -0.000107009 -0.000130699 0 -0.000104836 -0.000132449 0 -0.000102635 -0.000134161 0 -0.00010041 -0.000135835 0 -9.81595e-05 -0.00013747 0 -9.58857e-05 -0.000139065 0 -9.35896e-05 -0.000140621 0 -9.12719e-05 -0.000142136 0 -8.8934e-05 -0.000143611 0 -8.65767e-05 -0.000145044 0 -8.42011e-05 -0.000146436 0 -8.18084e-05 -0.000147786 0 -7.93996e-05 -0.000149094 0