<?xml version="1.0"?> 
<VTKFile type="StructuredGrid" version="0.1"> 
<StructuredGrid WholeExtent="0 100 0 100 0 0"> 
<Piece Extent="0 100 0 100 0 0"> 
<PointData Scalars="Stress components">
<DataArray type="Float32" Name="sigma_xx" format="ascii" NumberOfComponents="1"> 
-0.104487 -0.10603 -0.10798 -0.110409 -0.113388 -0.11699 -0.121287 -0.126355 -0.132266 -0.139096 -0.146919 -0.155735 -0.165489 -0.176169 -0.187762 -0.200256 -0.213633 -0.227877 -0.242968 -0.258887 -0.275611 -0.293148 -0.311519 -0.330716 -0.350732 -0.371558 -0.393181 -0.415591 -0.438773 -0.462711 -0.48739 -0.512775 -0.538825 -0.565514 -0.59281 -0.620685 -0.649106 -0.678041 -0.707455 -0.737313 -0.76758 -0.798225 -0.829219 -0.860528 -0.892113 -0.923938 -0.955964 -0.988154 -1.02047 -1.05287 -1.08531 -1.11776 -1.15017 -1.1825 -1.21471 -1.24675 -1.2786 -1.3102 -1.34152 -1.37253 -1.40318 -1.43344 -1.46329 -1.49267 -1.52158 -1.54996 -1.5778 -1.60506 -1.63173 -1.65776 -1.68314 -1.70784 -1.73182 -1.75507 -1.77756 -1.79926 -1.82016 -1.84024 -1.85948 -1.87787 -1.89539 -1.91204 -1.92782 -1.94274 -1.9568 -1.97 -1.98234 -1.99384 -2.00449 -2.0143 -2.02329 -2.03143 -2.0387 -2.04507 -2.05052 -2.05502 -2.05856 -2.06113 -2.0627 -2.06327 -2.06282 -0.18085 -0.18208 -0.183691 -0.185739 -0.188283 -0.191382 -0.195096 -0.199484 -0.204608 -0.210527 -0.217303 -0.22493 -0.233361 -0.242586 -0.252596 -0.263379 -0.274922 -0.287211 -0.30023 -0.313963 -0.32839 -0.343521 -0.359374 -0.375942 -0.39322 -0.411198 -0.429866 -0.449215 -0.469231 -0.489901 -0.511211 -0.533129 -0.555622 -0.578663 -0.60223 -0.626294 -0.650829 -0.675807 -0.701198 -0.726972 -0.753098 -0.77955 -0.806305 -0.833331 -0.860597 -0.888069 -0.915715 -0.943502 -0.971396 -0.999364 -1.02737 -1.05538 -1.08336 -1.11127 -1.13907 -1.16674 -1.19423 -1.22152 -1.24856 -1.27534 -1.3018 -1.32794 -1.3537 -1.37908 -1.40403 -1.42853 -1.45255 -1.47608 -1.49909 -1.52154 -1.54343 -1.56474 -1.58543 -1.60549 -1.6249 -1.64364 -1.6617 -1.67905 -1.69568 -1.71158 -1.72674 -1.74115 -1.7548 -1.7677 -1.77984 -1.79123 -1.80187 -1.81176 -1.82092 -1.82934 -1.83703 -1.844 -1.85024 -1.85571 -1.86042 -1.86433 -1.86745 -1.86974 -1.87121 -1.87184 -1.87163 -0.264455 -0.265441 -0.266779 -0.268515 -0.270698 -0.273375 -0.276596 -0.28041 -0.284865 -0.29001 -0.295894 -0.302512 -0.309822 -0.317817 -0.326487 -0.335825 -0.345819 -0.356457 -0.367728 -0.379616 -0.392106 -0.405207 -0.418936 -0.433286 -0.448251 -0.463824 -0.479996 -0.496758 -0.514099 -0.532007 -0.550469 -0.569458 -0.588943 -0.608903 -0.629317 -0.650162 -0.671414 -0.693049 -0.715042 -0.737366 -0.759995 -0.782907 -0.806082 -0.829491 -0.853107 -0.876903 -0.90085 -0.924918 -0.949079 -0.973304 -0.997563 -1.02182 -1.04606 -1.07023 -1.09431 -1.11828 -1.1421 -1.16573 -1.18917 -1.21236 -1.23529 -1.25793 -1.28026 -1.30224 -1.32385 -1.34507 -1.36588 -1.38625 -1.40617 -1.42561 -1.44456 -1.463 -1.48092 -1.49829 -1.5151 -1.53133 -1.54698 -1.56202 -1.57644 -1.59024 -1.60339 -1.6159 -1.62774 -1.63893 -1.64945 -1.65931 -1.66852 -1.67707 -1.68497 -1.69223 -1.69885 -1.70484 -1.71021 -1.71494 -1.71902 -1.72243 -1.72516 -1.72721 -1.72856 -1.72921 -1.72915 -0.349712 -0.350506 -0.351623 -0.353103 -0.354984 -0.357306 -0.360109 -0.363433 -0.367316 -0.3718 -0.376923 -0.38268 -0.389035 -0.395982 -0.403514 -0.411624 -0.420302 -0.42954 -0.439327 -0.44965 -0.460498 -0.471878 -0.483804 -0.496271 -0.509273 -0.522804 -0.536857 -0.551422 -0.56649 -0.582051 -0.598093 -0.614592 -0.631522 -0.648864 -0.6666 -0.68471 -0.703174 -0.72197 -0.741077 -0.760471 -0.780131 -0.800037 -0.82017 -0.840508 -0.861026 -0.881699 -0.902504 -0.923415 -0.944406 -0.965452 -0.986527 -1.00761 -1.02866 -1.04966 -1.07058 -1.09141 -1.1121 -1.13264 -1.153 -1.17315 -1.19308 -1.21275 -1.23215 -1.25125 -1.27003 -1.28846 -1.30654 -1.32424 -1.34154 -1.35842 -1.37488 -1.39089 -1.40645 -1.42153 -1.43614 -1.45025 -1.46384 -1.47691 -1.48946 -1.50145 -1.5129 -1.52378 -1.53408 -1.54381 -1.55295 -1.56152 -1.56951 -1.57693 -1.58378 -1.59006 -1.59579 -1.60097 -1.60561 -1.60971 -1.61325 -1.61622 -1.61862 -1.62044 -1.62167 -1.6223 -1.62233 -0.43251 -0.433152 -0.434091 -0.435359 -0.436988 -0.43901 -0.441457 -0.444362 -0.447757 -0.451675 -0.456147 -0.461168 -0.466707 -0.472761 -0.479322 -0.486387 -0.493946 -0.501992 -0.510517 -0.519511 -0.528963 -0.538879 -0.549272 -0.560137 -0.571469 -0.583263 -0.595511 -0.608205 -0.621338 -0.6349 -0.648881 -0.66326 -0.678014 -0.693127 -0.708583 -0.724364 -0.740454 -0.756834 -0.773484 -0.790385 -0.807518 -0.824864 -0.84241 -0.860134 -0.878014 -0.896031 -0.914161 -0.932384 -0.950677 -0.969018 -0.987384 -1.00575 -1.0241 -1.0424 -1.06064 -1.07878 -1.09681 -1.11471 -1.13246 -1.15002 -1.16739 -1.18454 -1.20144 -1.21809 -1.23445 -1.25052 -1.26627 -1.28169 -1.29677 -1.31148 -1.32581 -1.33976 -1.35331 -1.36646 -1.37919 -1.39148 -1.40333 -1.41473 -1.42566 -1.43612 -1.44611 -1.4556 -1.46459 -1.47307 -1.48104 -1.48851 -1.49547 -1.50193 -1.50789 -1.51335 -1.51832 -1.52281 -1.52685 -1.53041 -1.5335 -1.53609 -1.5382 -1.5398 -1.54091 -1.5415 -1.54159 -0.509758 -0.510281 -0.511076 -0.51217 -0.513587 -0.515355 -0.5175 -0.520049 -0.523027 -0.526461 -0.530376 -0.534768 -0.539612 -0.544904 -0.55064 -0.556815 -0.563422 -0.570456 -0.577909 -0.585772 -0.594038 -0.602711 -0.611802 -0.621305 -0.631218 -0.641533 -0.652246 -0.66335 -0.674836 -0.686697 -0.698924 -0.711499 -0.724401 -0.737618 -0.751134 -0.764935 -0.779006 -0.79333 -0.807891 -0.822672 -0.837655 -0.852826 -0.868171 -0.883671 -0.899309 -0.915066 -0.930922 -0.946859 -0.962857 -0.978897 -0.994959 -1.01102 -1.02707 -1.04307 -1.05902 -1.07489 -1.09066 -1.10631 -1.12183 -1.1372 -1.15239 -1.16738 -1.18217 -1.19672 -1.21104 -1.22509 -1.23886 -1.25235 -1.26553 -1.27839 -1.29093 -1.30313 -1.31498 -1.32647 -1.3376 -1.34835 -1.35872 -1.36868 -1.37825 -1.3874 -1.39614 -1.40445 -1.41231 -1.41973 -1.4267 -1.43323 -1.43932 -1.44497 -1.45018 -1.45495 -1.45928 -1.46321 -1.46673 -1.46984 -1.47253 -1.47481 -1.47665 -1.47807 -1.47905 -1.4796 -1.47971 -0.57909 -0.57952 -0.580199 -0.581148 -0.582389 -0.583944 -0.585833 -0.588079 -0.590703 -0.593725 -0.597167 -0.601024 -0.605277 -0.609924 -0.614959 -0.62038 -0.626182 -0.632358 -0.638903 -0.645811 -0.653073 -0.660694 -0.668682 -0.677033 -0.685743 -0.694807 -0.70422 -0.713975 -0.724067 -0.734487 -0.745227 -0.756273 -0.767606 -0.779216 -0.791089 -0.803212 -0.815573 -0.828156 -0.840947 -0.853932 -0.867095 -0.880423 -0.893904 -0.907521 -0.921259 -0.935102 -0.949032 -0.963033 -0.977087 -0.991178 -1.00529 -1.0194 -1.0335 -1.04756 -1.06157 -1.07551 -1.08936 -1.10311 -1.11674 -1.13024 -1.14358 -1.15676 -1.16975 -1.18254 -1.19511 -1.20745 -1.21956 -1.2314 -1.24298 -1.25429 -1.2653 -1.27601 -1.28642 -1.29652 -1.3063 -1.31574 -1.32484 -1.3336 -1.342 -1.35004 -1.35772 -1.36502 -1.37192 -1.37844 -1.38457 -1.39031 -1.39566 -1.40062 -1.4052 -1.40939 -1.4132 -1.41664 -1.41973 -1.42246 -1.42482 -1.42682 -1.42844 -1.42969 -1.43056 -1.43105 -1.43116 -0.638659 -0.639017 -0.639603 -0.640435 -0.64153 -0.642907 -0.644581 -0.646572 -0.648897 -0.651572 -0.654614 -0.658021 -0.661777 -0.665879 -0.670326 -0.675114 -0.680237 -0.685693 -0.691476 -0.697581 -0.704001 -0.710739 -0.717801 -0.725184 -0.732883 -0.740896 -0.749216 -0.757838 -0.766757 -0.775965 -0.785456 -0.795216 -0.805231 -0.81549 -0.825981 -0.836695 -0.847618 -0.858738 -0.870042 -0.881517 -0.89315 -0.90493 -0.916844 -0.928879 -0.941021 -0.953255 -0.965566 -0.97794 -0.990361 -1.00281 -1.01528 -1.02776 -1.04021 -1.05264 -1.06502 -1.07734 -1.08958 -1.10173 -1.11378 -1.12571 -1.1375 -1.14914 -1.16062 -1.17192 -1.18304 -1.19395 -1.20464 -1.21511 -1.22535 -1.23534 -1.24507 -1.25454 -1.26374 -1.27267 -1.28131 -1.28965 -1.29769 -1.30543 -1.31285 -1.31996 -1.32674 -1.33319 -1.33929 -1.34505 -1.35047 -1.35555 -1.36028 -1.36466 -1.36871 -1.37242 -1.37579 -1.37883 -1.38156 -1.38397 -1.38605 -1.38781 -1.38924 -1.39034 -1.39111 -1.39155 -1.39165 -0.687007 -0.687311 -0.687823 -0.68856 -0.689536 -0.690766 -0.692263 -0.694042 -0.696117 -0.698503 -0.701212 -0.704244 -0.707587 -0.711238 -0.715196 -0.719457 -0.724019 -0.728877 -0.734028 -0.739467 -0.745188 -0.751194 -0.757488 -0.764068 -0.770929 -0.778069 -0.785482 -0.793164 -0.801109 -0.809312 -0.817765 -0.826459 -0.835378 -0.844516 -0.853861 -0.863404 -0.873134 -0.88304 -0.89311 -0.903333 -0.913697 -0.924192 -0.934806 -0.945528 -0.956345 -0.967244 -0.978212 -0.989235 -1.0003 -1.0114 -1.0225 -1.03361 -1.04471 -1.05578 -1.06681 -1.07778 -1.08869 -1.09952 -1.11025 -1.12087 -1.13137 -1.14175 -1.15197 -1.16204 -1.17194 -1.18166 -1.19119 -1.20052 -1.20964 -1.21854 -1.22721 -1.23565 -1.24385 -1.2518 -1.25949 -1.26693 -1.27409 -1.28098 -1.28759 -1.29392 -1.29995 -1.30569 -1.31113 -1.31626 -1.32109 -1.32561 -1.32983 -1.33374 -1.33735 -1.34066 -1.34367 -1.34638 -1.34882 -1.35096 -1.35281 -1.35438 -1.35565 -1.35662 -1.3573 -1.35768 -1.35776 -0.722967 -0.723229 -0.723685 -0.724347 -0.725227 -0.726337 -0.72769 -0.729296 -0.731168 -0.733318 -0.735756 -0.738482 -0.741487 -0.744771 -0.74833 -0.752163 -0.756268 -0.76064 -0.765277 -0.770174 -0.775327 -0.780736 -0.786406 -0.792331 -0.798511 -0.80494 -0.811615 -0.818531 -0.825684 -0.833068 -0.840677 -0.848501 -0.85653 -0.864754 -0.873167 -0.881757 -0.890516 -0.899433 -0.908499 -0.917703 -0.927033 -0.936482 -0.946038 -0.955691 -0.96543 -0.975242 -0.985117 -0.995041 -1.005 -1.01499 -1.02499 -1.035 -1.04499 -1.05495 -1.06488 -1.07476 -1.08458 -1.09432 -1.10398 -1.11354 -1.123 -1.13233 -1.14154 -1.1506 -1.15952 -1.16827 -1.17685 -1.18525 -1.19346 -1.20148 -1.20929 -1.21689 -1.22427 -1.23143 -1.23835 -1.24504 -1.25149 -1.25769 -1.26364 -1.26933 -1.27476 -1.27992 -1.28481 -1.28943 -1.29378 -1.29785 -1.30165 -1.30518 -1.30843 -1.31142 -1.31413 -1.31658 -1.31878 -1.32071 -1.32237 -1.32377 -1.32491 -1.32578 -1.32638 -1.32671 -1.32678 -0.745589 -0.745822 -0.746235 -0.746839 -0.747644 -0.748661 -0.7499 -0.75137 -0.753081 -0.755044 -0.757267 -0.759751 -0.76249 -0.765482 -0.768726 -0.772221 -0.775964 -0.779952 -0.784182 -0.788651 -0.793355 -0.798294 -0.803469 -0.808878 -0.814518 -0.820385 -0.826477 -0.832788 -0.839314 -0.846051 -0.852992 -0.860129 -0.867453 -0.874956 -0.882631 -0.890468 -0.898459 -0.906595 -0.914867 -0.923265 -0.93178 -0.940401 -0.949121 -0.957929 -0.966816 -0.975769 -0.984779 -0.993834 -1.00292 -1.01204 -1.02116 -1.03029 -1.0394 -1.0485 -1.05756 -1.06657 -1.07553 -1.08442 -1.09323 -1.10196 -1.11058 -1.1191 -1.1275 -1.13577 -1.1439 -1.15188 -1.15971 -1.16738 -1.17487 -1.18219 -1.18932 -1.19625 -1.20299 -1.20952 -1.21584 -1.22195 -1.22783 -1.23348 -1.23891 -1.2441 -1.24905 -1.25375 -1.25821 -1.26243 -1.26639 -1.27011 -1.27358 -1.2768 -1.27978 -1.28251 -1.28499 -1.28723 -1.28924 -1.291 -1.29251 -1.29379 -1.29482 -1.2956 -1.29614 -1.29644 -1.29649 -0.761444 -0.761652 -0.76203 -0.762586 -0.763329 -0.764268 -0.765411 -0.766767 -0.768345 -0.770152 -0.772196 -0.77448 -0.776997 -0.779747 -0.78273 -0.785943 -0.789385 -0.793053 -0.796945 -0.801058 -0.805387 -0.809934 -0.814697 -0.819676 -0.824867 -0.830267 -0.835873 -0.84168 -0.847685 -0.853883 -0.860268 -0.866834 -0.873572 -0.880475 -0.887536 -0.894746 -0.902099 -0.909585 -0.917196 -0.924923 -0.932758 -0.940691 -0.948715 -0.95682 -0.964997 -0.973235 -0.981526 -0.989858 -0.998222 -1.00661 -1.015 -1.0234 -1.03179 -1.04015 -1.04849 -1.05678 -1.06503 -1.07321 -1.08131 -1.08934 -1.09728 -1.10511 -1.11284 -1.12045 -1.12793 -1.13528 -1.14248 -1.14954 -1.15643 -1.16317 -1.16973 -1.17611 -1.18231 -1.18832 -1.19414 -1.19975 -1.20516 -1.21037 -1.21535 -1.22013 -1.22468 -1.229 -1.23311 -1.23698 -1.24063 -1.24406 -1.24725 -1.25022 -1.25296 -1.25547 -1.25776 -1.25983 -1.26167 -1.26329 -1.26469 -1.26586 -1.2668 -1.26752 -1.26801 -1.26827 -1.26831 -0.777404 -0.777589 -0.777933 -0.778444 -0.779129 -0.779996 -0.781052 -0.782305 -0.783761 -0.785427 -0.787311 -0.789413 -0.791731 -0.794264 -0.79701 -0.799969 -0.803138 -0.806517 -0.810102 -0.813891 -0.817881 -0.822071 -0.826462 -0.83105 -0.835834 -0.84081 -0.845975 -0.851326 -0.856859 -0.862569 -0.868451 -0.8745 -0.880707 -0.887066 -0.893571 -0.900214 -0.906988 -0.913885 -0.920898 -0.928017 -0.935236 -0.942546 -0.949939 -0.957407 -0.96494 -0.972531 -0.980169 -0.987846 -0.995552 -1.00328 -1.01101 -1.01875 -1.02648 -1.03419 -1.04187 -1.04951 -1.0571 -1.06464 -1.07211 -1.0795 -1.08682 -1.09403 -1.10115 -1.10816 -1.11506 -1.12183 -1.12846 -1.13496 -1.14132 -1.14752 -1.15357 -1.15945 -1.16516 -1.1707 -1.17606 -1.18124 -1.18622 -1.19101 -1.19561 -1.2 -1.20419 -1.20818 -1.21196 -1.21553 -1.21889 -1.22204 -1.22499 -1.22772 -1.23025 -1.23257 -1.23468 -1.23659 -1.23829 -1.23978 -1.24106 -1.24214 -1.243 -1.24366 -1.24411 -1.24435 -1.24439 -0.793157 -0.79332 -0.793632 -0.794101 -0.794733 -0.795534 -0.79651 -0.797668 -0.799014 -0.800553 -0.802292 -0.804231 -0.806369 -0.808704 -0.811237 -0.813965 -0.816888 -0.820004 -0.823311 -0.826807 -0.830489 -0.834355 -0.838406 -0.84264 -0.847054 -0.851646 -0.856412 -0.861349 -0.866454 -0.871721 -0.877148 -0.882728 -0.888454 -0.894321 -0.900322 -0.90645 -0.9127 -0.919063 -0.925533 -0.932102 -0.938762 -0.945506 -0.952327 -0.959217 -0.966168 -0.973171 -0.980218 -0.987301 -0.99441 -1.00154 -1.00868 -1.01581 -1.02294 -1.03005 -1.03714 -1.04419 -1.0512 -1.05815 -1.06504 -1.07186 -1.07861 -1.08527 -1.09184 -1.0983 -1.10466 -1.11091 -1.11703 -1.12303 -1.12889 -1.13462 -1.1402 -1.14562 -1.1509 -1.15601 -1.16095 -1.16572 -1.17032 -1.17474 -1.17898 -1.18303 -1.1869 -1.19058 -1.19406 -1.19736 -1.20046 -1.20337 -1.20609 -1.20861 -1.21094 -1.21308 -1.21503 -1.21679 -1.21836 -1.21974 -1.22092 -1.22191 -1.22271 -1.22331 -1.22373 -1.22395 -1.22399 -0.808438 -0.808581 -0.808865 -0.809295 -0.809878 -0.810618 -0.811521 -0.812593 -0.813838 -0.815262 -0.81687 -0.818662 -0.820637 -0.822794 -0.825133 -0.827654 -0.830353 -0.833232 -0.836286 -0.839516 -0.842917 -0.84649 -0.850233 -0.854145 -0.858224 -0.862467 -0.866871 -0.871433 -0.876149 -0.881016 -0.88603 -0.891185 -0.896475 -0.901895 -0.90744 -0.913102 -0.918876 -0.924755 -0.930733 -0.936802 -0.942956 -0.949187 -0.95549 -0.961856 -0.968278 -0.974748 -0.981259 -0.987803 -0.994372 -1.00096 -1.00755 -1.01415 -1.02073 -1.0273 -1.03385 -1.04036 -1.04684 -1.05326 -1.05963 -1.06593 -1.07217 -1.07832 -1.08439 -1.09036 -1.09624 -1.10201 -1.10767 -1.11321 -1.11863 -1.12391 -1.12907 -1.13408 -1.13895 -1.14367 -1.14824 -1.15265 -1.1569 -1.16098 -1.1649 -1.16865 -1.17222 -1.17562 -1.17884 -1.18188 -1.18475 -1.18744 -1.18995 -1.19228 -1.19443 -1.19641 -1.19821 -1.19984 -1.20129 -1.20256 -1.20365 -1.20456 -1.2053 -1.20586 -1.20625 -1.20646 -1.20649 -0.823026 -0.82315 -0.823408 -0.823803 -0.824341 -0.825025 -0.825862 -0.826855 -0.82801 -0.829329 -0.830818 -0.832477 -0.834305 -0.836302 -0.838466 -0.840797 -0.843295 -0.845958 -0.848784 -0.851772 -0.85492 -0.858226 -0.86169 -0.86531 -0.869085 -0.873011 -0.877087 -0.881309 -0.885674 -0.890178 -0.894817 -0.899588 -0.904483 -0.909499 -0.91463 -0.919869 -0.925213 -0.930653 -0.936185 -0.941802 -0.947496 -0.953263 -0.959096 -0.964987 -0.97093 -0.976917 -0.982943 -0.988998 -0.995077 -1.00117 -1.00727 -1.01338 -1.01947 -1.02555 -1.03161 -1.03764 -1.04363 -1.04957 -1.05547 -1.0613 -1.06707 -1.07276 -1.07838 -1.08391 -1.08934 -1.09468 -1.09992 -1.10505 -1.11006 -1.11495 -1.11972 -1.12436 -1.12887 -1.13324 -1.13747 -1.14155 -1.14548 -1.14926 -1.15288 -1.15635 -1.15966 -1.1628 -1.16578 -1.1686 -1.17125 -1.17374 -1.17606 -1.17822 -1.18022 -1.18205 -1.18371 -1.18521 -1.18655 -1.18773 -1.18874 -1.18958 -1.19027 -1.19079 -1.19115 -1.19135 -1.19138 -0.83673 -0.836839 -0.837072 -0.837435 -0.837932 -0.838566 -0.839342 -0.840264 -0.841336 -0.842561 -0.843942 -0.845482 -0.847177 -0.849028 -0.851034 -0.853195 -0.855511 -0.857979 -0.860598 -0.863367 -0.866285 -0.869349 -0.872561 -0.875917 -0.879416 -0.883057 -0.886835 -0.890749 -0.894796 -0.898971 -0.903273 -0.907695 -0.912234 -0.916884 -0.92164 -0.926497 -0.931451 -0.936494 -0.941623 -0.94683 -0.952109 -0.957455 -0.962862 -0.968324 -0.973833 -0.979384 -0.98497 -0.990584 -0.996219 -1.00187 -1.00753 -1.01318 -1.01883 -1.02447 -1.03009 -1.03567 -1.04123 -1.04674 -1.0522 -1.05761 -1.06296 -1.06824 -1.07344 -1.07857 -1.08361 -1.08856 -1.09342 -1.09817 -1.10282 -1.10735 -1.11177 -1.11607 -1.12025 -1.1243 -1.12822 -1.132 -1.13565 -1.13915 -1.14251 -1.14573 -1.14879 -1.15171 -1.15448 -1.15709 -1.15955 -1.16186 -1.16401 -1.16601 -1.16786 -1.16955 -1.17109 -1.17248 -1.17372 -1.17481 -1.17575 -1.17653 -1.17717 -1.17765 -1.17799 -1.17818 -1.17822 -0.849388 -0.849483 -0.849696 -0.85003 -0.850489 -0.851078 -0.851799 -0.852656 -0.853653 -0.854792 -0.856077 -0.857508 -0.859083 -0.860803 -0.862667 -0.864675 -0.866825 -0.869117 -0.87155 -0.874122 -0.876831 -0.879678 -0.882661 -0.885779 -0.889029 -0.892411 -0.895921 -0.899557 -0.903317 -0.907196 -0.911192 -0.9153 -0.919517 -0.923836 -0.928255 -0.932767 -0.937368 -0.942054 -0.946818 -0.951655 -0.956559 -0.961526 -0.966548 -0.971622 -0.97674 -0.981897 -0.987086 -0.992301 -0.997535 -1.00278 -1.00804 -1.01329 -1.01854 -1.02378 -1.029 -1.03419 -1.03935 -1.04447 -1.04954 -1.05457 -1.05953 -1.06444 -1.06928 -1.07404 -1.07872 -1.08332 -1.08783 -1.09224 -1.09656 -1.10077 -1.10488 -1.10887 -1.11275 -1.11652 -1.12016 -1.12367 -1.12706 -1.13031 -1.13344 -1.13642 -1.13927 -1.14198 -1.14455 -1.14698 -1.14927 -1.15141 -1.15341 -1.15527 -1.15698 -1.15855 -1.15998 -1.16127 -1.16242 -1.16343 -1.1643 -1.16503 -1.16562 -1.16608 -1.1664 -1.16658 -1.16662 -0.860859 -0.860943 -0.861137 -0.861446 -0.861873 -0.86242 -0.863091 -0.863889 -0.864818 -0.86588 -0.867078 -0.868411 -0.869879 -0.871481 -0.873217 -0.875086 -0.877088 -0.879222 -0.881487 -0.883882 -0.886404 -0.889054 -0.891831 -0.894734 -0.897761 -0.90091 -0.904179 -0.907565 -0.911066 -0.914678 -0.918399 -0.922225 -0.926151 -0.930173 -0.934288 -0.938489 -0.942774 -0.947137 -0.951573 -0.956077 -0.960643 -0.965268 -0.969945 -0.974669 -0.979435 -0.984237 -0.989069 -0.993925 -0.998799 -1.00369 -1.00858 -1.01347 -1.01836 -1.02324 -1.02809 -1.03293 -1.03773 -1.0425 -1.04723 -1.0519 -1.05653 -1.0611 -1.0656 -1.07004 -1.0744 -1.07868 -1.08288 -1.08699 -1.09101 -1.09493 -1.09875 -1.10247 -1.10608 -1.10959 -1.11298 -1.11625 -1.1194 -1.12244 -1.12534 -1.12813 -1.13078 -1.13331 -1.1357 -1.13796 -1.14009 -1.14208 -1.14395 -1.14567 -1.14727 -1.14873 -1.15006 -1.15126 -1.15233 -1.15327 -1.15408 -1.15476 -1.15531 -1.15574 -1.15604 -1.15621 -1.15626 -0.871021 -0.871096 -0.871276 -0.871563 -0.87196 -0.87247 -0.873096 -0.873842 -0.87471 -0.875702 -0.876821 -0.878067 -0.879438 -0.880934 -0.882555 -0.8843 -0.88617 -0.888162 -0.890277 -0.892512 -0.894867 -0.897341 -0.899934 -0.902644 -0.905471 -0.908411 -0.911463 -0.914625 -0.917894 -0.921267 -0.924742 -0.928314 -0.93198 -0.935736 -0.939577 -0.943501 -0.947501 -0.951575 -0.955717 -0.959922 -0.964186 -0.968504 -0.972872 -0.977283 -0.981733 -0.986216 -0.990728 -0.995262 -0.999813 -1.00438 -1.00894 -1.01351 -1.01808 -1.02263 -1.02717 -1.03168 -1.03616 -1.04062 -1.04503 -1.0494 -1.05372 -1.05798 -1.06219 -1.06633 -1.0704 -1.0744 -1.07832 -1.08216 -1.08591 -1.08957 -1.09314 -1.09661 -1.09999 -1.10326 -1.10642 -1.10948 -1.11242 -1.11525 -1.11797 -1.12057 -1.12305 -1.12541 -1.12764 -1.12976 -1.13174 -1.13361 -1.13534 -1.13696 -1.13845 -1.13981 -1.14105 -1.14217 -1.14316 -1.14404 -1.1448 -1.14543 -1.14595 -1.14635 -1.14664 -1.1468 -1.14685 -0.879768 -0.879838 -0.880005 -0.880273 -0.880644 -0.881122 -0.881709 -0.882407 -0.88322 -0.884149 -0.885198 -0.886365 -0.88765 -0.889051 -0.89057 -0.892205 -0.893956 -0.895822 -0.897803 -0.899896 -0.902102 -0.904419 -0.906848 -0.909387 -0.912034 -0.914789 -0.917648 -0.92061 -0.923672 -0.926832 -0.930087 -0.933433 -0.936867 -0.940385 -0.943983 -0.947658 -0.951405 -0.955221 -0.959101 -0.96304 -0.967034 -0.971079 -0.97517 -0.979302 -0.983471 -0.98767 -0.991897 -0.996144 -1.00041 -1.00468 -1.00896 -1.01324 -1.01751 -1.02178 -1.02603 -1.03026 -1.03446 -1.03863 -1.04276 -1.04685 -1.0509 -1.0549 -1.05884 -1.06271 -1.06653 -1.07027 -1.07395 -1.07754 -1.08106 -1.08449 -1.08783 -1.09108 -1.09424 -1.0973 -1.10027 -1.10313 -1.10589 -1.10854 -1.11109 -1.11352 -1.11584 -1.11805 -1.12015 -1.12213 -1.12399 -1.12573 -1.12736 -1.12887 -1.13027 -1.13154 -1.1327 -1.13375 -1.13468 -1.1355 -1.13621 -1.13681 -1.1373 -1.13767 -1.13794 -1.1381 -1.13815 -0.887628 -0.887694 -0.887851 -0.888102 -0.888451 -0.888899 -0.88945 -0.890105 -0.890868 -0.89174 -0.892725 -0.893821 -0.895027 -0.896343 -0.897768 -0.899303 -0.900947 -0.902699 -0.904558 -0.906524 -0.908595 -0.91077 -0.91305 -0.915434 -0.91792 -0.920505 -0.92319 -0.92597 -0.928845 -0.931812 -0.934868 -0.93801 -0.941233 -0.944536 -0.947914 -0.951364 -0.954882 -0.958464 -0.962106 -0.965804 -0.969554 -0.973351 -0.977192 -0.981072 -0.984985 -0.988928 -0.992896 -0.996883 -1.00089 -1.0049 -1.00892 -1.01293 -1.01695 -1.02095 -1.02494 -1.02891 -1.03285 -1.03677 -1.04065 -1.04449 -1.04829 -1.05204 -1.05574 -1.05938 -1.06296 -1.06648 -1.06993 -1.0733 -1.0766 -1.07982 -1.08296 -1.08601 -1.08898 -1.09185 -1.09463 -1.09732 -1.09991 -1.1024 -1.10479 -1.10708 -1.10926 -1.11134 -1.1133 -1.11516 -1.11691 -1.11855 -1.12007 -1.12149 -1.1228 -1.124 -1.12509 -1.12607 -1.12694 -1.12771 -1.12838 -1.12894 -1.1294 -1.12975 -1.13 -1.13015 -1.1302 -0.895149 -0.895211 -0.89536 -0.895596 -0.895924 -0.896345 -0.896863 -0.897479 -0.898195 -0.899015 -0.89994 -0.90097 -0.902103 -0.90334 -0.904679 -0.906122 -0.907667 -0.909313 -0.91106 -0.912908 -0.914854 -0.916898 -0.919042 -0.921282 -0.923618 -0.926048 -0.928571 -0.931185 -0.933887 -0.936675 -0.939547 -0.942499 -0.945529 -0.948632 -0.951807 -0.955049 -0.958355 -0.961721 -0.965144 -0.96862 -0.972144 -0.975712 -0.979322 -0.982968 -0.986646 -0.990352 -0.994081 -0.997828 -1.00159 -1.00536 -1.00914 -1.01291 -1.01668 -1.02045 -1.02419 -1.02792 -1.03163 -1.03531 -1.03896 -1.04257 -1.04614 -1.04966 -1.05314 -1.05656 -1.05993 -1.06323 -1.06647 -1.06965 -1.07275 -1.07577 -1.07872 -1.08159 -1.08438 -1.08708 -1.08969 -1.09222 -1.09465 -1.09699 -1.09924 -1.10139 -1.10344 -1.10539 -1.10724 -1.10899 -1.11063 -1.11217 -1.1136 -1.11494 -1.11616 -1.11729 -1.11831 -1.11923 -1.12006 -1.12078 -1.12141 -1.12193 -1.12237 -1.1227 -1.12294 -1.12308 -1.12312 -0.902274 -0.902334 -0.902474 -0.902697 -0.903006 -0.903402 -0.903889 -0.904469 -0.905143 -0.905914 -0.906784 -0.907753 -0.908819 -0.909982 -0.911242 -0.912599 -0.914053 -0.915602 -0.917246 -0.918984 -0.920815 -0.922739 -0.924756 -0.926864 -0.929062 -0.931349 -0.933723 -0.936182 -0.938724 -0.941348 -0.94405 -0.946828 -0.949678 -0.952598 -0.955585 -0.958635 -0.961746 -0.964913 -0.968134 -0.971404 -0.974719 -0.978077 -0.981474 -0.984904 -0.988365 -0.991852 -0.995361 -0.998887 -1.00243 -1.00597 -1.00953 -1.01308 -1.01663 -1.02017 -1.02369 -1.0272 -1.03069 -1.03415 -1.03758 -1.04098 -1.04434 -1.04766 -1.05093 -1.05415 -1.05732 -1.06043 -1.06348 -1.06646 -1.06938 -1.07223 -1.075 -1.0777 -1.08032 -1.08286 -1.08532 -1.0877 -1.08999 -1.09219 -1.0943 -1.09633 -1.09826 -1.10009 -1.10183 -1.10347 -1.10502 -1.10647 -1.10782 -1.10907 -1.11023 -1.11129 -1.11225 -1.11312 -1.11389 -1.11457 -1.11516 -1.11566 -1.11606 -1.11638 -1.1166 -1.11673 -1.11678 -0.908953 -0.90901 -0.909142 -0.909353 -0.909645 -0.910019 -0.910478 -0.911024 -0.911659 -0.912385 -0.913205 -0.914117 -0.91512 -0.916216 -0.917403 -0.918681 -0.92005 -0.92151 -0.923059 -0.924697 -0.926422 -0.928235 -0.930135 -0.932122 -0.934193 -0.936348 -0.938584 -0.940901 -0.943296 -0.945768 -0.948314 -0.950931 -0.953616 -0.956367 -0.959181 -0.962054 -0.964985 -0.967969 -0.971003 -0.974083 -0.977207 -0.980371 -0.983571 -0.986803 -0.990064 -0.993349 -0.996654 -0.999977 -1.00331 -1.00665 -1.01 -1.01335 -1.01669 -1.02003 -1.02335 -1.02665 -1.02994 -1.0332 -1.03643 -1.03964 -1.0428 -1.04593 -1.04901 -1.05204 -1.05503 -1.05795 -1.06083 -1.06364 -1.06639 -1.06907 -1.07169 -1.07423 -1.0767 -1.07909 -1.08141 -1.08365 -1.08581 -1.08788 -1.08987 -1.09178 -1.09359 -1.09532 -1.09696 -1.09851 -1.09997 -1.10133 -1.1026 -1.10379 -1.10488 -1.10587 -1.10678 -1.1076 -1.10833 -1.10897 -1.10952 -1.10999 -1.11037 -1.11067 -1.11088 -1.111 -1.11104 -0.91514 -0.915194 -0.91532 -0.915519 -0.915795 -0.916148 -0.916582 -0.917097 -0.917697 -0.918382 -0.919154 -0.920014 -0.920961 -0.921994 -0.923114 -0.92432 -0.925611 -0.926988 -0.92845 -0.929995 -0.931624 -0.933335 -0.935128 -0.937002 -0.938957 -0.94099 -0.9431 -0.945286 -0.947546 -0.949878 -0.95228 -0.954749 -0.957283 -0.959878 -0.962533 -0.965244 -0.968009 -0.970824 -0.973687 -0.976594 -0.979541 -0.982526 -0.985545 -0.988595 -0.991672 -0.994771 -0.997891 -1.00103 -1.00417 -1.00733 -1.01048 -1.01364 -1.0168 -1.01994 -1.02308 -1.0262 -1.0293 -1.03237 -1.03542 -1.03844 -1.04143 -1.04438 -1.04729 -1.05015 -1.05296 -1.05573 -1.05844 -1.06109 -1.06369 -1.06622 -1.06868 -1.07108 -1.07342 -1.07567 -1.07786 -1.07997 -1.08201 -1.08397 -1.08584 -1.08764 -1.08935 -1.09099 -1.09253 -1.09399 -1.09537 -1.09665 -1.09786 -1.09897 -1.1 -1.10094 -1.1018 -1.10257 -1.10326 -1.10387 -1.10439 -1.10483 -1.10519 -1.10546 -1.10566 -1.10578 -1.10581 -0.920794 -0.920846 -0.920966 -0.921155 -0.921416 -0.92175 -0.92216 -0.922648 -0.923214 -0.923862 -0.924591 -0.925404 -0.926298 -0.927274 -0.928332 -0.929472 -0.930692 -0.931993 -0.933375 -0.934836 -0.936375 -0.937992 -0.939687 -0.941459 -0.943306 -0.945228 -0.947223 -0.949289 -0.951425 -0.953629 -0.955898 -0.958232 -0.960626 -0.963079 -0.965588 -0.96815 -0.970763 -0.973424 -0.976129 -0.978877 -0.981662 -0.984484 -0.987337 -0.990219 -0.993127 -0.996057 -0.999005 -1.00197 -1.00494 -1.00792 -1.01091 -1.01389 -1.01687 -1.01985 -1.02281 -1.02576 -1.02869 -1.0316 -1.03448 -1.03733 -1.04015 -1.04294 -1.04569 -1.04839 -1.05105 -1.05367 -1.05623 -1.05874 -1.06119 -1.06358 -1.06591 -1.06818 -1.07038 -1.07252 -1.07459 -1.07658 -1.07851 -1.08036 -1.08213 -1.08383 -1.08545 -1.08699 -1.08845 -1.08983 -1.09113 -1.09235 -1.09348 -1.09454 -1.09551 -1.0964 -1.09721 -1.09794 -1.09859 -1.09916 -1.09966 -1.10007 -1.10041 -1.10067 -1.10086 -1.10097 -1.101 -0.925881 -0.92593 -0.926044 -0.926224 -0.926471 -0.926788 -0.927177 -0.927639 -0.928175 -0.928788 -0.929479 -0.930248 -0.931094 -0.932018 -0.933019 -0.934098 -0.935254 -0.936486 -0.937794 -0.939177 -0.940635 -0.942167 -0.943772 -0.94545 -0.947199 -0.949019 -0.950908 -0.952864 -0.954887 -0.956974 -0.959123 -0.961332 -0.963599 -0.965922 -0.968298 -0.970724 -0.973198 -0.975717 -0.978279 -0.98088 -0.983518 -0.98619 -0.988892 -0.991621 -0.994374 -0.997149 -0.99994 -1.00275 -1.00556 -1.00838 -1.01121 -1.01404 -1.01686 -1.01968 -1.02248 -1.02527 -1.02805 -1.0308 -1.03353 -1.03623 -1.0389 -1.04154 -1.04414 -1.04671 -1.04923 -1.0517 -1.05413 -1.0565 -1.05882 -1.06109 -1.0633 -1.06544 -1.06753 -1.06955 -1.07151 -1.0734 -1.07522 -1.07697 -1.07865 -1.08026 -1.08179 -1.08325 -1.08463 -1.08594 -1.08717 -1.08832 -1.0894 -1.0904 -1.09132 -1.09216 -1.09293 -1.09362 -1.09424 -1.09478 -1.09525 -1.09565 -1.09596 -1.09621 -1.09638 -1.09648 -1.09651 -0.930367 -0.930414 -0.930522 -0.930692 -0.930928 -0.931229 -0.931598 -0.932037 -0.932546 -0.933128 -0.933783 -0.934512 -0.935315 -0.936191 -0.937141 -0.938165 -0.939261 -0.94043 -0.941672 -0.942984 -0.944368 -0.945822 -0.947345 -0.948937 -0.950598 -0.952325 -0.954117 -0.955974 -0.957893 -0.959873 -0.961912 -0.964009 -0.96616 -0.968364 -0.970618 -0.97292 -0.975268 -0.977659 -0.98009 -0.982558 -0.985061 -0.987596 -0.99016 -0.99275 -0.995363 -0.997996 -1.00064 -1.00331 -1.00598 -1.00866 -1.01134 -1.01402 -1.0167 -1.01937 -1.02203 -1.02468 -1.02732 -1.02993 -1.03252 -1.03508 -1.03762 -1.04012 -1.04259 -1.04502 -1.04741 -1.04976 -1.05206 -1.05432 -1.05652 -1.05867 -1.06077 -1.0628 -1.06478 -1.0667 -1.06856 -1.07035 -1.07208 -1.07374 -1.07534 -1.07686 -1.07832 -1.0797 -1.08101 -1.08225 -1.08342 -1.08451 -1.08553 -1.08648 -1.08736 -1.08816 -1.08889 -1.08955 -1.09013 -1.09065 -1.09109 -1.09146 -1.09177 -1.092 -1.09216 -1.09225 -1.09228 -0.934223 -0.934267 -0.93437 -0.934532 -0.934756 -0.935043 -0.935395 -0.935812 -0.936297 -0.936851 -0.937474 -0.938167 -0.93893 -0.939764 -0.940667 -0.94164 -0.942683 -0.943795 -0.944976 -0.946225 -0.947541 -0.948924 -0.950373 -0.951888 -0.953467 -0.95511 -0.956815 -0.958581 -0.960407 -0.96229 -0.96423 -0.966224 -0.96827 -0.970366 -0.972511 -0.974701 -0.976934 -0.979208 -0.98152 -0.983869 -0.98625 -0.988661 -0.9911 -0.993564 -0.996049 -0.998553 -1.00107 -1.0036 -1.00615 -1.00869 -1.01125 -1.0138 -1.01635 -1.01889 -1.02142 -1.02394 -1.02644 -1.02893 -1.03139 -1.03383 -1.03624 -1.03862 -1.04097 -1.04328 -1.04556 -1.04779 -1.04998 -1.05213 -1.05422 -1.05627 -1.05826 -1.0602 -1.06208 -1.06391 -1.06568 -1.06738 -1.06903 -1.07061 -1.07212 -1.07357 -1.07495 -1.07627 -1.07752 -1.0787 -1.07981 -1.08085 -1.08182 -1.08272 -1.08355 -1.08432 -1.08501 -1.08564 -1.0862 -1.08669 -1.08711 -1.08746 -1.08775 -1.08797 -1.08812 -1.08821 -1.08823 -0.937424 -0.937465 -0.937562 -0.937716 -0.93793 -0.938204 -0.93854 -0.938938 -0.939401 -0.939929 -0.940523 -0.941184 -0.941912 -0.942707 -0.943568 -0.944497 -0.945491 -0.946552 -0.947678 -0.948869 -0.950124 -0.951443 -0.952826 -0.954271 -0.955777 -0.957344 -0.958971 -0.960655 -0.962396 -0.964192 -0.966042 -0.967944 -0.969896 -0.971895 -0.97394 -0.976029 -0.978159 -0.980328 -0.982534 -0.984773 -0.987044 -0.989344 -0.99167 -0.99402 -0.99639 -0.998779 -1.00118 -1.0036 -1.00602 -1.00845 -1.01089 -1.01332 -1.01575 -1.01817 -1.02059 -1.02299 -1.02538 -1.02775 -1.0301 -1.03243 -1.03473 -1.037 -1.03924 -1.04144 -1.04361 -1.04574 -1.04783 -1.04987 -1.05187 -1.05383 -1.05573 -1.05758 -1.05937 -1.06112 -1.0628 -1.06443 -1.066 -1.0675 -1.06895 -1.07033 -1.07165 -1.0729 -1.07409 -1.07522 -1.07628 -1.07727 -1.0782 -1.07906 -1.07985 -1.08058 -1.08124 -1.08184 -1.08237 -1.08284 -1.08324 -1.08358 -1.08385 -1.08406 -1.08421 -1.08429 -1.08431 -0.940268 -0.940305 -0.940397 -0.940544 -0.940748 -0.94101 -0.941331 -0.941712 -0.942155 -0.942659 -0.943227 -0.943859 -0.944554 -0.945314 -0.946137 -0.947023 -0.947973 -0.948986 -0.950062 -0.9512 -0.952399 -0.95366 -0.954981 -0.956361 -0.9578 -0.959297 -0.960851 -0.96246 -0.964124 -0.96584 -0.967607 -0.969424 -0.971288 -0.973199 -0.975153 -0.977148 -0.979183 -0.981256 -0.983363 -0.985503 -0.987672 -0.98987 -0.992092