<?xml version="1.0"?> 
<VTKFile type="StructuredGrid" version="0.1"> 
<StructuredGrid WholeExtent="0 100 0 100 0 0"> 
<Piece Extent="0 100 0 100 0 0"> 
<PointData Scalars="Temperature">
<DataArray type="Float32" Name="Temperature" format="ascii" NumberOfComponents="1"> 
0.999913 1.0029 1.00811 1.01554 1.0252 1.03708 1.05118 1.06751 1.08606 1.10683 1.12983 1.15432 1.17958 1.20561 1.2324 1.25996 1.28829 1.31739 1.34725 1.37788 1.40928 1.44084 1.47198 1.50268 1.53295 1.5628 1.59221 1.62119 1.64974 1.67786 1.70555 1.73243 1.75814 1.78267 1.80602 1.8282 1.8492 1.86902 1.88766 1.90513 1.92142 1.93633 1.94968 1.96145 1.97166 1.98029 1.98735 1.99284 1.99676 1.9991 1.99988 1.99909 1.99673 1.9928 1.98731 1.98025 1.97162 1.96143 1.94967 1.93634 1.92144 1.90517 1.88772 1.86908 1.84926 1.82826 1.80607 1.7827 1.75814 1.7324 1.70548 1.67776 1.64961 1.62105 1.59208 1.56268 1.53287 1.50263 1.47198 1.44091 1.40943 1.3781 1.34752 1.31767 1.28857 1.26022 1.2326 1.20572 1.17959 1.1542 1.12955 1.10639 1.08548 1.06681 1.05038 1.0362 1.02426 1.01457 1.00712 1.00192 0.998954 0.988013 0.990953 0.996054 1.00332 1.01274 1.02433 1.03809 1.054 1.07209 1.09234 1.11475 1.13863 1.16325 1.18863 1.21477 1.24165 1.26929 1.29769 1.32683 1.35673 1.38738 1.41821 1.44862 1.47862 1.50821 1.53738 1.56614 1.59449 1.62243 1.64995 1.67706 1.70339 1.72857 1.7526 1.77548 1.79721 1.8178 1.83723 1.85551 1.87264 1.88862 1.90326 1.91635 1.9279 1.93791 1.94639 1.95332 1.9587 1.96255 1.96486 1.96562 1.96484 1.96253 1.95868 1.95329 1.94636 1.93789 1.92788 1.91634 1.90326 1.88864 1.87268 1.85556 1.83728 1.81785 1.79726 1.77552 1.75262 1.72857 1.70336 1.677 1.64986 1.62232 1.59438 1.56604 1.53729 1.50814 1.47859 1.44864 1.41828 1.38753 1.35694 1.32708 1.29795 1.26955 1.24188 1.21494 1.18872 1.16324 1.13848 1.11446 1.09189 1.07151 1.05331 1.0373 1.02347 1.01182 1.00236 0.995084 0.989986 0.98707 0.976182 0.979075 0.984069 0.991165 1.00036 1.01167 1.02507 1.04059 1.05821 1.07794 1.09978 1.12305 1.14705 1.17179 1.19728 1.2235 1.25046 1.27816 1.30659 1.33577 1.36568 1.39577 1.42547 1.45477 1.48368 1.51219 1.54031 1.56804 1.59536 1.62229 1.64883 1.6746 1.69925 1.72279 1.7452 1.76649 1.78666 1.8057 1.82362 1.84042 1.85609 1.87045 1.88329 1.89462 1.90445 1.91276 1.91956 1.92484 1.92862 1.93088 1.93163 1.93087 1.9286 1.92482 1.91953 1.91273 1.90443 1.89461 1.88328 1.87045 1.85611 1.84045 1.82366 1.80574 1.7867 1.76653 1.74523 1.7228 1.69925 1.67457 1.64877 1.62222 1.59527 1.56794 1.54022 1.51212 1.48363 1.45475 1.4255 1.39585 1.36583 1.33597 1.30682 1.2784 1.25069 1.22369 1.19741 1.17185 1.14701 1.12288 1.09947 1.07749 1.05763 1.0399 1.02429 1.01081 0.999458 0.990226 0.983115 0.978125 0.975255 0.96442 0.967266 0.972154 0.979083 0.988057 0.999077 1.01214 1.02726 1.04443 1.06365 1.08492 1.10759 1.13098 1.15509 1.17993 1.20549 1.23178 1.25879 1.28653 1.31499 1.34418 1.37354 1.40253 1.43114 1.45937 1.48723 1.51471 1.54181 1.56854 1.59488 1.62084 1.64606 1.6702 1.69324 1.71518 1.73603 1.75579 1.77445 1.79201 1.80847 1.82384 1.83791 1.85051 1.86162 1.87126 1.87941 1.88608 1.89126 1.89496 1.89719 1.89792 1.89718 1.89495 1.89125 1.88606 1.87939 1.87124 1.86161 1.8505 1.83792 1.82385 1.80849 1.79204 1.77448 1.75582 1.73606 1.7152 1.69324 1.67019 1.64604 1.6208 1.59482 1.56846 1.54174 1.51464 1.48718 1.45934 1.43114 1.40256 1.37362 1.34431 1.31517 1.28674 1.25901 1.23198 1.20566 1.18004 1.15512 1.13091 1.10741 1.0846 1.06319 1.04385 1.02657 1.01137 0.998236 0.987166 0.97816 0.971217 0.966333 0.963508 0.952727 0.955526 0.960308 0.967073 0.975825 0.986566 0.999297 1.01402 1.03074 1.04946 1.07017 1.09225 1.11503 1.13852 1.16272 1.18763 1.21326 1.23959 1.26664 1.2944 1.32286 1.35151 1.3798 1.40772 1.43529 1.4625 1.48935 1.51584 1.54196 1.56772 1.59311 1.61779 1.6414 1.66395 1.68543 1.70584 1.72519 1.74346 1.76067 1.7768 1.79186 1.80566 1.81801 1.8289 1.83835 1.84634 1.85288 1.85796 1.8616 1.86377 1.8645 1.86377 1.86159 1.85795 1.85287 1.84633 1.83834 1.8289 1.818 1.80566 1.79187 1.77682 1.76069 1.74349 1.72521 1.70586 1.68544 1.66395 1.64139 1.61777 1.59307 1.56767 1.5419 1.51578 1.4893 1.46246 1.43528 1.40773 1.37984 1.35159 1.32299 1.29457 1.26683 1.23979 1.21343 1.18777 1.1628 1.13853 1.11494 1.09205 1.06984 1.04899 1.03016 1.01334 0.998534 0.985737 0.974949 0.966166 0.959387 0.954609 0.95183 0.941102 0.943855 0.948532 0.955135 0.963668 0.974134 0.986534 1.00087 1.01715 1.03537 1.05554 1.07702 1.09921 1.12208 1.14566 1.16993 1.1949 1.22057 1.24693 1.27399 1.30175 1.32968 1.35728 1.38453 1.41144 1.43801 1.46423 1.4901 1.51563 1.54081 1.56564 1.58977 1.61287 1.63493 1.65595 1.67593 1.69487 1.71276 1.72961 1.74541 1.76017 1.77369 1.78579 1.79647 1.80573 1.81356 1.81997 1.82496 1.82852 1.83065 1.83136 1.83065 1.82851 1.82495 1.81996 1.81355 1.80572 1.79647 1.78579 1.77369 1.76017 1.74542 1.72962 1.71278 1.69488 1.67594 1.65596 1.63493 1.61286 1.58975 1.56561 1.54077 1.51559 1.49006 1.46419 1.43798 1.41144 1.38455 1.35733 1.32977 1.30187 1.27415 1.2471 1.22074 1.19505 1.17005 1.14572 1.12207 1.0991 1.07681 1.05519 1.0349 1.01657 1.0002 0.98578 0.973317 0.962806 0.954244 0.947628 0.942954 0.940221 0.929547 0.932253 0.936826 0.943269 0.951587 0.961781 0.973855 0.987813 1.00366 1.02139 1.04101 1.06192 1.08351 1.10579 1.12875 1.15239 1.17671 1.20172 1.22741 1.25378 1.28083 1.30807 1.33498 1.36156 1.38782 1.41375 1.43935 1.46462 1.48956 1.51416 1.53843 1.56203 1.58461 1.60619 1.62675 1.6463 1.66483 1.68234 1.69884 1.71431 1.72877 1.74201 1.75387 1.76433 1.7734 1.78108 1.78736 1.79224 1.79573 1.79782 1.79852 1.79782 1.79573 1.79224 1.78735 1.78107 1.7734 1.76433 1.75387 1.74201 1.72877 1.71432 1.69884 1.68235 1.66483 1.6463 1.62675 1.60618 1.5846 1.56201 1.53841 1.51413 1.48953 1.46459 1.43933 1.41374 1.38783 1.36159 1.33503 1.30815 1.28095 1.25392 1.22756 1.20187 1.17684 1.15247 1.12878 1.10575 1.08339 1.06169 1.04066 1.02091 1.00308 0.987142 0.97311 0.960977 0.950739 0.942394 0.935938 0.931368 0.928681 0.918061 0.92072 0.92519 0.931476 0.93958 0.949507 0.961261 0.974843 0.990258 1.00751 1.0266 1.04694 1.06795 1.08963 1.11198 1.135 1.15868 1.18304 1.20806 1.23376 1.26012 1.28666 1.31289 1.33882 1.36443 1.38973 1.41472 1.43939 1.46374 1.48778 1.51149 1.53455 1.55663 1.57772 1.59783 1.61695 1.63508 1.65221 1.66836 1.6835 1.69766 1.71063 1.72224 1.73249 1.74137 1.74889 1.75504 1.75983 1.76325 1.7653 1.76598 1.7653 1.76325 1.75983 1.75504 1.74889 1.74137 1.73249 1.72224 1.71063 1.69766 1.68351 1.66836 1.65221 1.63507 1.61695 1.59782 1.57772 1.55662 1.53454 1.51147 1.48776 1.46372 1.43937 1.41471 1.38974 1.36445 1.33885 1.31295 1.28674 1.26023 1.23389 1.2082 1.18317 1.15879 1.13506 1.11199 1.08957 1.0678 1.04669 1.02623 1.00703 0.989678 0.974178 0.960524 0.948715 0.938747 0.930616 0.924318 0.919851 0.917209 0.906644 0.909256 0.913625 0.919755 0.92765 0.937314 0.948751 0.961964 0.976958 0.993735 1.0123 1.03208 1.05252 1.07362 1.09536 1.11777 1.14083 1.16454 1.18891 1.21393 1.23961 1.26547 1.29103 1.31631 1.34128 1.36596 1.39034 1.41441 1.43819 1.46166 1.48482 1.50735 1.52892 1.54954 1.5692 1.58789 1.60562 1.62238 1.63817 1.65299 1.66685 1.67955 1.69092 1.70095 1.70965 1.71701 1.72303 1.72772 1.73107 1.73308 1.73375 1.73308 1.73107 1.72772 1.72304 1.71701 1.70965 1.70095 1.69092 1.67955 1.66685 1.65299 1.63817 1.62237 1.60561 1.58788 1.56919 1.54953 1.52891 1.50734 1.48481 1.46164 1.43818 1.41441 1.39034 1.36597 1.34131 1.31635 1.29109 1.26554 1.23971 1.21405 1.18902 1.16464 1.1409 1.11781 1.09535 1.07353 1.05235 1.03182 1.01193 0.993252 0.976379 0.961304 0.948023 0.936533 0.92683 0.91891 0.912769 0.908402 0.905806 0.895295 0.897861 0.90213 0.908107 0.915795 0.9252 0.936326 0.949176 0.963755 0.980066 0.998112 1.01735 1.03722 1.05774 1.0789 1.1007 1.12313 1.14622 1.16994 1.1943 1.2193 1.24449 1.2694 1.29402 1.31837 1.34243 1.36621 1.3897 1.4129 1.43581 1.45842 1.48043 1.5015 1.52164 1.54085 1.55912 1.57645 1.59284 1.60829 1.62279 1.63634 1.64877 1.6599 1.66972 1.67823 1.68544 1.69133 1.69592 1.6992 1.70117 1.70182 1.70117 1.6992 1.69593 1.69134 1.68544 1.67824 1.66972 1.6599 1.64877 1.63634 1.62278 1.60827 1.59283 1.57644 1.55911 1.54084 1.52163 1.50149 1.48042 1.45842 1.4358 1.4129 1.3897 1.36622 1.34246 1.3184 1.29407 1.26945 1.24456 1.21939 1.1944 1.17004 1.1463 1.12319 1.10071 1.07886 1.05763 1.03704 1.01707 0.997731 0.979581 0.963179 0.948522 0.935608 0.924432 0.914989 0.907276 0.901289 0.897023 0.894472 0.884016 0.886536 0.890706 0.896531 0.904017 0.913167 0.923987 0.936481 0.950652 0.966504 0.984042 1.00274 1.02206 1.04201 1.06258 1.08378 1.10561 1.12807 1.15116 1.17487 1.19921 1.22373 1.24798 1.27198 1.2957 1.31916 1.34234 1.36525 1.38788 1.41023 1.43231 1.45379 1.47437 1.49404 1.5128 1.53065 1.54759 1.5636 1.57871 1.59289 1.60615 1.61831 1.62919 1.6388 1.64713 1.65418 1.65995 1.66444 1.66765 1.66958 1.67022 1.66958 1.66766 1.66445 1.65996 1.65419 1.64714 1.63881 1.62919 1.61831 1.60614 1.59288 1.57869 1.56359 1.54757 1.53063 1.51278 1.49402 1.47435 1.45378 1.4323 1.41023 1.38789 1.36526 1.34236 1.31919 1.29574 1.27203 1.24804 1.2238 1.19929 1.17496 1.15124 1.12814 1.10565 1.08378 1.06252 1.04188 1.02186 1.00245 0.983653 0.966016 0.950077 0.935832 0.923278 0.91241 0.903224 0.895716 0.88988 0.885712 0.883207 0.872806 0.87528 0.879352 0.885029 0.892315 0.901215 0.911734 0.923877 0.937647 0.95305 0.970088 0.988251 1.00703 1.02642 1.04642 1.06704 1.08827 1.11011 1.13257 1.15564 1.17932 1.20319 1.2268 1.25017 1.27328 1.29613 1.31873 1.34106 1.36313 1.38494 1.40647 1.42744 1.44753 1.46673 1.48505 1.50248 1.51903 1.53468 1.54944 1.5633 1.57626 1.58816 1.5988 1.6082 1.61635 1.62325 1.62889 1.63328 1.63642 1.63831 1.63894 1.63831 1.63643 1.63329 1.6289 1.62326 1.61636 1.60821 1.59881 1.58816 1.57626 1.56329 1.54942 1.53466 1.519 1.50246 1.48503 1.46671 1.44751 1.42743 1.40647 1.38494 1.36314 1.34108 1.31875 1.29617 1.27332 1.25022 1.22686 1.20325 1.17939 1.15571 1.13263 1.11015 1.08828 1.06701 1.04634 1.02627 1.00681 0.98795 0.969692 0.952559 0.937075 0.923235 0.911034 0.90047 0.891536 0.884228 0.878541 0.874471 0.87201 0.861664 0.864093 0.868069 0.8736 0.88069 0.889344 0.899568 0.911366 0.924743 0.939703 0.95625 0.973891 0.992132 1.01097 1.03041 1.05045 1.07109 1.09233 1.11417 1.13661 1.15965 1.18287 1.20585 1.2286 1.2511 1.27336 1.29538 1.31714 1.33866 1.35992 1.38093 1.40138 1.42098 1.43972 1.4576 1.47462 1.49078 1.50606 1.52048 1.53403 1.5467 1.55833 1.56874 1.57793 1.58589 1.59264 1.59816 1.60245 1.60552 1.60736 1.60798 1.60737 1.60553 1.60246 1.59817 1.59265 1.5859 1.57793 1.56874 1.55833 1.54669 1.53401 1.52046 1.50604 1.49075 1.4746 1.45758 1.4397 1.42096 1.40137 1.38093 1.35993 1.33868 1.31717 1.29541 1.2734 1.25115 1.22865 1.20591 1.18293 1.15971 1.13667 1.11422 1.09236 1.07108 1.0504 1.03031 1.01081 0.9919 0.973579 0.955847 0.939211 0.924173 0.91073 0.898877 0.88861 0.879924 0.872813 0.867273 0.863298 0.860883 0.850592 0.852975 0.856857 0.862244 0.869141 0.877554 0.887488 0.898948 0.911938 0.926464 0.94253 0.959659 0.977373 0.995673 1.01456 1.03403 1.05409 1.07474 1.09597 1.11779 1.14019 1.16278 1.18514 1.20727 1.22918 1.25085 1.27229 1.2935 1.31446 1.33519 1.35567 1.37561 1.39473 1.41301 1.43046 1.44707 1.46284 1.47777 1.49185 1.50508 1.51746 1.52883 1.539 1.54798 1.55577 1.56236 1.56776 1.57195 1.57495 1.57675 1.57736 1.57676 1.57496 1.57197 1.56777 1.56237 1.55578 1.54799 1.539 1.52882 1.51745 1.50506 1.49182 1.47774 1.46281 1.44704 1.43044 1.41299 1.39472 1.37561 1.35567 1.3352 1.31449 1.29353 1.27233 1.2509 1.22923 1.20732 1.18519 1.16283 1.14024 1.11783 1.096 1.07474 1.05407 1.03396 1.01444 0.995495 0.977127 0.959336 0.942121 0.925972 0.911372 0.898319 0.886807 0.876832 0.868388 0.861472 0.856076 0.852195 0.849824 0.839589 0.841927 0.845717 0.850962 0.85767 0.865846 0.875496 0.886624 0.899235 0.913335 0.928927 0.945553 0.962751 0.980521 0.998864 1.01778 1.03727 1.05733 1.07796 1.09917 1.12095 1.14291 1.16466 1.18619 1.20751 1.22861 1.24948 1.27013 1.29055 1.31074 1.33071 1.35015 1.36879 1.38661 1.40363 1.41984 1.43522 1.44979 1.46354 1.47646 1.48856 1.49966 1.5096 1.51837 1.52598 1.53242 1.53769 1.54179 1.54472 1.54648 1.54707 1.54649 1.54473 1.54181 1.5377 1.53243 1.52599 1.51838 1.5096 1.49965 1.48854 1.47644 1.46351 1.44976 1.4352 1.41981 1.40361 1.3866 1.36877 1.35014 1.33071 1.31076 1.29058 1.27017 1.24952 1.22865 1.20756 1.18624 1.16471 1.14296 1.12099 1.0992 1.07798 1.05732 1.03722 1.01769 0.998728 0.980328 0.962492 0.945221 0.928514 0.912842 0.898672 0.886001 0.874824 0.865135 0.85693 0.850203 0.844949 0.841161 0.838834 0.828654 0.830949 0.834647 0.839754 0.846276 0.85422 0.863591 0.874393 0.886633 0.900315 0.915444 0.931577 0.948267 0.965517 0.983326 1.00169 1.02062 1.04011 1.06016 1.08076 1.10193 1.12327 1.14442 1.16536 1.1861 1.20662 1.22694 1.24704 1.26693 1.28659 1.30604 1.32499 1.34315 1.36053 1.37712 1.39292 1.40793 1.42214 1.43556 1.44817 1.45998 1.47082 1.48053 1.4891 1.49653 1.50282 1.50797 1.51198 1.51484 1.51656 1.51713 1.51656 1.51485 1.51199 1.50798 1.50283 1.49654 1.48911 1.48053 1.47082 1.45997 1.44815 1.43553 1.42212 1.4079 1.3929 1.3771 1.36051 1.34314 1.32498 1.30605 1.28662 1.26696 1.24708 1.22698 1.20667 1.18614 1.16541 1.14446 1.12331 1.10196 1.08078 1.06016 1.04008 1.02056 1.00159 0.983174 0.965309 0.947997 0.931236 0.915027 0.899822 0.886074 0.873778 0.862928 0.853521 0.845549 0.839009 0.833893 0.830197 0.827912 0.817789 0.82004 0.823648 0.82862 0.83496 0.842677 0.851774 0.862258 0.874134 0.887406 0.902081 0.917729 0.933923 0.950662 0.967947 0.985779 1.00416 1.02308 1.04255 1.06257 1.08313 1.10387 1.12442 1.14478 1.16494 1.18491 1.20468 1.22424 1.24359 1.26274 1.28168 1.30013 1.31783 1.33476 1.35093 1.36633 1.38097 1.39483 1.40791 1.42022 1.43175 1.44233 1.45181 1.46017 1.46743 1.47357 1.4786 1.48251 1.4853 1.48698 1.48754 1.48699 1.48531 1.48252 1.47861 1.47358 1.46744 1.46018 1.45181 1.44233 1.43174 1.4202 1.40789 1.3948 1.38094 1.36631 1.35091 1.33474 1.31781 1.30013 1.28169 1.26276 1.24363 1.22428 1.20472 1.18496 1.16499 1.14482 1.12446 1.1039 1.08315 1.06257 1.04253 1.02304 1.00408 0.985659 0.96778 0.950441 0.933642 0.917381 0.901659 0.886914 0.873578 0.861649 0.851121 0.841988 0.834246 0.827888 0.822909 0.819301 0.81706 0.806992 0.809201 0.812721 0.81756 0.823722 0.831216 0.840046 0.850217 0.861737 0.874609 0.888838 0.904013 0.919719 0.935958 0.95273 0.970034 0.987872 1.00624 1.02515 1.04458 1.06455 1.0847 1.10467 1.12445 1.14405 1.16347 1.18269 1.20172 1.22055 1.23919 1.25762 1.27559 1.29282 1.30931 1.32507 1.34008 1.35434 1.36785 1.38061 1.39261 1.40386 1.41419 1.42343 1.4316 1.43868 1.44467 1.44958 1.45339 1.45612 1.45776 1.45831 1.45777 1.45613 1.45341 1.44959 1.44468 1.43869 1.4316 1.42343 1.41418 1.40385 1.39259 1.38058 1.36782 1.35431 1.34005 1.32504 1.3093 1.29281 1.27559 1.25763 1.23921 1.22058 1.20176 1.18273 1.16351 1.1441 1.12449 1.1047 1.08472 1.06456 1.04457 1.02511 1.00618 0.987777 0.969899 0.952548 0.935725 0.919428 0.903658 0.888414 0.874117 0.861186 0.849616 0.839402 0.830539 0.823021 0.816841 0.811995 0.808476 0.806276 0.796265 0.798432 0.801866 0.806574 0.812562 0.819838 0.828406 0.838272 0.849443 0.861922 0.875716 0.890427 0.905656 0.921405 0.937674 0.954462 0.97177 0.989599 1.00795 1.02682 1.0462 1.06577 1.08516 1.10438 1.12343 1.1423 1.16099 1.17949 1.19781 1.21594 1.23387 1.25136 1.26813 1.28419 1.29953 1.31415 1.32804 1.34121 1.35365 1.36535 1.37632 1.38639 1.39541 1.40338 1.41028 1.41613 1.42092 1.42464 1.4273 1.4289 1.42944 1.42891 1.42731 1.42465 1.42093 1.41614 1.41029 1.40338 1.39541 1.38639 1.37631 1.36533 1.35363 1.34119 1.32802 1.31413 1.29951 1.28417 1.26812 1.25136 1.23388 1.21596 1.19784 1.17953 1.16103 1.14234 1.12347 1.10441 1.08518 1.06578 1.0462 1.02679 1.0079 0.989523 0.97166 0.954312 0.937479 0.921161 0.905356 0.890066 0.87529 0.861432 0.848896 0.837678 0.827772 0.819172 0.811873 0.805869 0.801153 0.797719 0.795561 0.785607 0.787732 0.791082 0.795663 0.801481 0.808543 0.816855 0.826423 0.837253 0.849349 0.862716 0.876973 0.891736 0.907005 0.92278 0.939063 0.955853 0.973149 0.990953 1.00926 1.02808 1.04707 1.06591 1.08457 1.10308 1.12141 1.13957 1.15756 1.17536 1.19299 1.21044 1.22745 1.24377 1.2594 1.27433 1.28856 1.30209 1.31492 1.32704 1.33844 1.34913 1.35895 1.36775 1.37552 1.38225 1.38795 1.39262 1.39625 1.39885 1.40041 1.40093 1.40041 1.39885 1.39626 1.39263 1.38796 1.38226 1.37552 1.36775 1.35895 1.34912 1.33843 1.32702 1.3149 1.30207 1.28854 1.27431 1.25938 1.24376 1.22745 1.21045 1.19301 1.17539 1.15759 1.1396 1.12144 1.1031 1.08459 1.06592 1.04707 1.02806 1.00923 0.990892 0.973059 0.955728 0.9389 0.922574 0.90675 0.891428 0.876608 0.862288 0.84886 0.836711 0.825837 0.816231 0.807889 0.800804 0.79497 0.790382 0.787032 0.784914 0.775017 0.777102 0.78037 0.784826 0.790478 0.797332 0.805394 0.814671 0.825167 0.836888 0.849839 0.863652 0.877959 0.892758 0.908052 0.923839 0.940121 0.956897 0.974167 0.991932 1.01019 1.02862 1.0469 1.06502 1.08299 1.1008 1.11844 1.13592 1.15322 1.17036 1.18732 1.20386 1.21973 1.23494 1.24947 1.26332 1.27649 1.28898 1.30078 1.31189 1.32231 1.33188 1.34045 1.34802 1.35459 1.36014 1.36469 1.36823 1.37076 1.37228 1.37279 1.37229 1.37077 1.36824 1.3647 1.36015 1.35459 1.34803 1.34045 1.33188 1.3223 1.31187 1.30076 1.28896 1.27647 1.2633 1.24945 1.23493 1.21973 1.20386 1.18733 1.17038 1.15325 1.13594 1.11847 1.10082 1.08301 1.06503 1.0469 1.02861 1.01016 0.991881 0.974091 0.956792 0.939983 0.923663 0.907834 0.892494 0.877644 0.863283 0.84941 0.836402 0.824631 0.814092 0.80478 0.796689 0.789813 0.784147 0.779683 0.776415 0.774337 0.764498 0.766543 0.769729 0.774063 0.779552 0.786202 0.794019 0.80301 0.813179 0.824533 0.837076 0.850455 0.864313 0.878653 0.893473 0.908774 0.924558 0.940823 0.957569 0.974797 0.992507 1.01039 1.02812 1.04571 1.06315 1.08044 1.09757 1.11454 1.13136 1.14801 1.16449 1.18057 1.196 1.21078 1.22491 1.23839 1.2512 1.26335 1.27484 1.28566 1.29581 1.30514 1.31349 1.32086 1.32726 1.33267 1.3371 1.34055 1.34302 1.3445 1.34499 1.3445 1.34302 1.34056 1.33711 1.33268 1.32726 1.32086 1.31349 1.30513 1.2958 1.28565 1.27483 1.26334 1.25119 1.23837 1.2249 1.21077 1.196 1.18057 1.1645 1.14802 1.13138 1.11457 1.09759 1.08045 1.06316 1.04571 1.02811 1.01036 0.992462 0.974732 0.957479 0.940704 0.924407 0.908587 0.893245 0.87838 0.863993 0.850082 0.836647 0.82405 0.812649 0.802438 0.793414 0.78557 0.778899 0.773396 0.769055 0.765868 0.763829 0.75405 0.756055 0.75916 0.763373 0.768701 0.77515 0.782726 0.791436 0.801284 0.812276 0.824418 0.83737 0.850789 0.864675 0.87903 0.893854 0.909146 0.924908 0.941139 0.957839 0.975007 0.992343 1.00954 1.02661 1.04353 1.0603 1.07693 1.09341 1.10973 1.1259 1.14191 1.15753 1.17253 1.1869 1.20063 1.21373 1.2262 1.23802 1.2492 1.25973 1.26961 1.27869 1.28682 1.294 1.30023 1.3055 1.30982 1.31318 1.31558 1.31702 1.3175 1.31702 1.31558 1.31318 1.30982 1.30551 1.30023 1.294 1.28682 1.27868 1.2696 1.25972 1.24919 1.23801 1.22619 1.21372 1.20062 1.18689 1.17253 1.15754 1.14192 1.12592 1.10975 1.09342 1.07694 1.06031 1.04353 1.02659 1.00952 0.992304 0.97495 0.95776 0.941036 0.924777 0.908983 0.893655 0.878792 0.864395 0.850462 0.836994 0.82399 0.811796 0.800759 0.790872 0.782131 0.774529 0.76806 0.762719 0.758499 0.755392 0.753393 0.743673 0.745637 0.748663 0.752757 0.757926 0.764177 0.771516 0.779949 0.789482 0.800119 0.811867 0.824399 0.837385 0.850827 0.864724 0.879078 0.893888 0.909155 0.924878 0.941058 0.957694 0.974495 0.991168 1.00771 1.02412 1.04039 1.05652 1.07251 1.08836 1.10405 1.1196 1.13476 1.14933 1.16328 1.17663 1.18936 1.20148 1.21297 1.22385 1.23409 1.24371 1.25254 1.26046 1.26745 1.27351 1.27865 1.28285 1.28612 1.28845 1.28986 1.29032 1.28986 1.28846 1.28612 1.28285 1.27865 1.27351 1.26745 1.26046 1.25254 1.2437 1.23408 1.22384 1.21297 1.20147 1.18936 1.17663 1.16328 1.14933 1.13477 1.1196 1.10406 1.08837 1.07252 1.05653 1.04039 1.02411 1.00769 0.991133 0.974444 0.957624 0.940967 0.924762 0.909011 0.893713 0.878869 0.864478 0.850539 0.837054 0.824021 0.811439 0.799642 0.788962 0.779393 0.77093 0.763566 0.757296 0.752114 0.748014 0.744987 0.743028 0.733368 0.735291 0.738237 0.742213 0.747226 0.753283 0.760389 0.76855 0.777773 0.788062 0.799423 0.811543 0.824104 0.837109 0.850557 0.864448 0.878784 0.893564 0.908788 0.924456 0.940568 0.956843 0.972997 0.989028 1.00493 1.02071 1.03635 1.05186 1.06723 1.08246 1.09754 1.11226 1.1264 1.13995 1.15291 1.16528 1.17705 1.18823 1.19879 1.20876 1.21811 1.22671 1.23441 1.24121 1.24711 1.2521 1.25619 1.25937 1.26164 1.26301 1.26346 1.26301 1.26164 1.25937 1.25619 1.2521 1.24711 1.24121 1.2344 1.2267 1.2181 1.20875 1.19879 1.18822 1.17705 1.16528 1.15291 1.13995 1.1264 1.11226 1.09755 1.08246 1.06723 1.05186 1.03635 1.0207 1.00491 0.988998 0.972952 0.956781 0.940487 0.924353 0.90866 0.893409 0.878598 0.864229 0.850301 0.836815 0.823768 0.811162 0.798995 0.787588 0.777259 0.768002 0.759811 0.752682 0.746608 0.741583 0.7376 0.734653 0.732734 0.723134 0.725016 0.727883 0.731743 0.736602 0.742467 0.749344 0.757239 0.766157 0.776105 0.787087 0.798802 0.810947 0.823522 0.836528 0.849966 0.863836 0.878137 0.892871 0.908036 0.923633 0.93939 0.955034 0.970561 0.98597 1.00126 1.01642 1.03145 1.04635 1.06112 1.07575 1.09003 1.10375 1.1169 1.12949 1.14149 1.15293 1.16378 1.17404 1.18373 1.19282 1.20118 1.20867 1.21528 1.22102 1.22588 1.22985 1.23295 1.23516 1.23648 1.23692 1.23648 1.23515 1.23294 1.22985 1.22587 1.22102 1.21528 1.20867 1.20118 1.19281 1.18372 1.17404 1.16377 1.15292 1.14149 1.12948 1.1169 1.10375 1.09003 1.07575 1.06112 1.04635 1.03145 1.01641 1.00124 0.985942 0.970521 0.954978 0.939317 0.92354 0.907921 0.892731 0.877971 0.863639 0.849738 0.836265 0.823221 0.810606 0.798419 0.78666 0.775635 0.765649 0.756698 0.748776 0.741877 0.735996 0.731125 0.727258 0.724389 0.722511 0.712972 0.714812 0.717602 0.721347 0.726055 0.731732 0.738384 0.746017 0.754637 0.764249 0.774858 0.786177 0.797913 0.810067 0.82264 0.835632 0.849044 0.862876 0.877127 0.891799 0.906889 0.922138 0.937279 0.952312 0.967232 0.982037 0.996723 1.01129 1.02573 1.04004 1.05423 1.06807 1.08138 1.09414 1.10635 1.118 1.1291 1.13963 1.1496 1.15901 1.16784 1.17597 1.18325 1.18968 1.19525 1.19997 1.20384 1.20684 1.20899 1.21028 1.21071 1.21028 1.20899 1.20684 1.20383 1.19997 1.19525 1.18967 1.18324 1.17597 1.16784 1.15901 1.1496 1.13963 1.12909 1.118 1.10635 1.09414 1.08138 1.06808 1.05423 1.04004 1.02573 1.01128 0.996708 0.982012 0.967196 0.952262 0.937214 0.922054 0.906786 0.891673 0.876977 0.862699 0.848838 0.835395 0.822369 0.809761 0.797569 0.785793 0.774432 0.763782 0.754134 0.745484 0.737825 0.731152 0.725459 0.72074 0.716988 0.714197 0.71236 0.70288 0.70468 0.707392 0.711024 0.715583 0.721075 0.727507 0.734883 0.743211 0.752494 0.762739 0.773669 0.785004 0.796745 0.808893 0.821448 0.834411 0.847782 0.86156 0.875746 0.890339 0.905088 0.919736 0.934282 0.948722 0.963053 0.977273 0.991378 1.00537 1.01923 1.03298 1.0464 1.05929 1.07166 1.0835 1.09481 1.10557 1.11579 1.12547 1.13461 1.14319 1.15108 1.15815 1.1644 1.16981 1.1744 1.17815 1.18107 1.18316 1.18441 1.18483 1.18441 1.18316 1.18107 1.17815 1.17439 1.16981 1.16439 1.15815 1.15108 1.14318 1.1346 1.12547 1.11579 1.10557 1.09481 1.0835 1.07166 1.05929 1.0464 1.03297 1.01923 1.00536 0.991364 0.977251 0.963021 0.948678 0.934223 0.919661 0.904994 0.890226 0.87561 0.8614 0.847595 0.834196 0.821203 0.808616 0.796434 0.784657 0.773284 0.762314 0.752031 0.742714 0.734358 0.726957 0.720506 0.714998 0.710429 0.70679 0.704076 0.702279 0.692861 0.694618 0.697254 0.700776 0.705188 0.710499 0.716714 0.723839 0.73188 0.740842 0.75073 0.761278 0.772221 0.783557 0.795289 0.807415 0.819938 0.832856 0.84617 0.85988 0.873985 0.888242 0.902406 0.916474 0.930442 0.944308 0.958069 0.971721 0.985262 0.998689 1.012 1.025 1.0375 1.04948 1.06096 1.07191 1.08235 1.09227 1.10166 1.11052 1.11885 1.12652 1.13338 1.13944 1.1447 1.14916 1.1528 1.15564 1.15766 1.15888 1.15928 1.15888 1.15766 1.15563 1.15279 1.14915 1.14469 1.13944 1.13337 1.12651 1.11885 1.11052 1.10166 1.09227 1.08235 1.07192 1.06096 1.04948 1.03749 1.025 1.012 0.998682 0.98525 0.971701 0.95804 0.944268 0.93039 0.916406 0.902322 0.888139 0.873861 0.859734 0.846 0.83266 0.819714 0.807163 0.795005 0.783241 0.771871 0.760893 0.750306 0.740383 0.731389 0.723321 0.716173 0.70994 0.704614 0.700191 0.696664 0.694026 0.69227 0.682912 0.684628 0.687189 0.690601 0.69487 0.700003 0.706006 0.712885 0.720645 0.729292 0.73883 0.749006 0.759564 0.770504 0.781828 0.793534 0.805625 0.8181 0.830958 0.844201 0.857828 0.871603 0.885292 0.89889 0.912395 0.925803 0.939113 0.95232 0.965423 0.978418 0.991302 1.00389 1.01599 1.0276 1.03871 1.04933 1.05945 1.06906 1.07816 1.08676 1.09484 1.10228 1.10894 1.11483 1.11993 1.12425 1.12779 1.13054 1.13251 1.13369 1.13408 1.13368 1.1325 1.13053 1.12778 1.12424 1.11992 1.11482 1.10893 1.10227 1.09484 1.08676 1.07816 1.06906 1.05945 1.04933 1.03871 1.0276 1.01599 1.00388 0.991294 0.978406 0.965405 0.952295 0.939078 0.925756 0.912334 0.898814 0.885199 0.871491 0.857695 0.844046 0.830779 0.817895 0.805394 0.793275 0.781539 0.770184 0.759212 0.74862 0.738409 0.728837 0.72016 0.712375 0.705474 0.699453 0.694307 0.690028 0.68661 0.684047 0.682333 0.673035 0.67471 0.677196 0.680501 0.684629 0.689588 0.695384 0.702021 0.709507 0.717845 0.727042 0.736853 0.747035 0.757587 0.768511 0.779807 0.791474 0.803515 0.815927 0.828712 0.841869 0.855173 0.868395 0.881532 0.894582 0.907542 0.920409 0.933179 0.94585 0.95842 0.970885 0.983064 0.994774 1.00601 1.01677 1.02706 1.03686 1.04617 1.05499 1.06333 1.07116 1.07838 1.08484 1.09055 1.0955 1.09969 1.10312 1.10579 1.1077 1.10884 1.10922 1.10884 1.10769 1.10578 1.10311 1.09968 1.09548 1.09054 1.08483 1.07837 1.07116 1.06332 1.05499 1.04617 1.03686 1.02706 1.01677 1.00601 0.99477 0.983056 0.970874 0.958404 0.945827 0.933147 0.920366 0.907488 0.894514 0.881448 0.868293 0.855052 0.841728 0.828548 0.81574 0.803302 0.791236 0.779541 0.768217 0.757264 0.746681 0.736467 0.726622 0.717394 0.709028 0.701518 0.69486 0.689048 0.684076 0.679938 0.676628 0.67414 0.672466 0.663229 0.664863 0.667276 0.670475 0.674465 0.679254 0.684846 0.691248 0.698465 0.706502 0.715365 0.72482 0.734634 0.744807 0.75534 0.766233 0.777487 0.789102 0.801078 0.813414 0.826112 0.838953 0.851717 0.864403 0.877007 0.889526 0.901958 0.914299 0.926547 0.938699 0.950752 0.962531 0.973859 0.984732 0.995146 1.0051 1.01459 1.0236 1.03215 1.04022 1.04782 1.05481 1.06108 1.06661 1.07141 1.07547 1.0788 1.08138 1.08323 1.08434 1.08471 1.08434 1.08323 1.08138 1.07879 1.07546 1.07139 1.0666 1.06107 1.0548 1.04781 1.04022 1.03215 1.02361 1.01459 1.0051 0.995145 0.984728 0.973852 0.962521 0.950737 0.938678 0.926519 0.914262 0.901909 0.889465 0.876931 0.864311 0.851608 0.838824 0.825962 0.813242 0.800882 0.788882 0.777242 0.765962 0.755042 0.744481 0.734278 0.724434 0.714948 0.706055 0.697992 0.690752 0.684331 0.678723 0.673922 0.669923 0.666719 0.664303 0.662671 0.653495 0.655088 0.657428 0.660523 0.664378 0.669 0.674394 0.680566 0.687521 0.695264 0.7038 0.712908 0.722362 0.732165 0.742316 0.752816 0.763665 0.774863 0.786412 0.79831 0.810557 0.822945 0.835261 0.847505 0.859671 0.871759 0.883764 0.895684 0.907517 0.919259 0.930907 0.942293 0.953244 0.963758 0.973831 0.983459 0.992639 1.00137 1.00964 1.01746 1.02482 1.03159 1.03766 1.04302 1.04767 1.0516 1.05483 1.05733 1.05913 1.0602 1.06056 1.0602 1.05912 1.05732 1.05482 1.05159 1.04765 1.04301 1.03765 1.03158 1.02481 1.01746 1.00964 1.00137 0.992639 0.983458 0.973828 0.963753 0.953235 0.942279 0.930888 0.919233 0.907483 0.89564 0.883709 0.87169 0.859588 0.847405 0.835144 0.822808 0.810399 0.79813 0.786209 0.774637 0.763414 0.752539 0.742013 0.731836 0.722005 0.712522 0.703385 0.694821 0.687053 0.680077 0.673887 0.668479 0.663845 0.659982 0.656881 0.654539 0.652946 0.643831 0.645384 0.647653 0.650647 0.654369 0.658828 0.664028 0.669975 0.676674 0.68413 0.692348 0.701116 0.71022 0.719661 0.729439 0.739554 0.750008 0.7608 0.77193 0.783399 0.795206 0.807151 0.819029 0.830839 0.842578 0.854242 0.865829 0.877337 0.888762 0.900101 0.911353 0.922352 0.932935 0.943096 0.952833 0.962142 0.971019 0.979462 0.987467 0.995032 1.00215 1.00871 1.01459 1.01978 1.02428 1.02809 1.03121 1.03364 1.03538 1.03642 1.03676 1.03641 1.03537 1.03363 1.0312 1.02808 1.02427 1.01977 1.01458 1.0087 1.00215 0.995028 0.987465 0.979461 0.971018 0.962139 0.952828 0.943088 0.932922 0.922335 0.911329 0.90007 0.888722 0.877287 0.865767 0.854166 0.842487 0.830732 0.818904 0.807007 0.795042 0.783213 0.771721 0.760568 0.749752 0.739274 0.729133 0.71933 0.709863 0.700732 0.691936 0.683692 0.676213 0.669494 0.66353 0.658316 0.653846 0.650115 0.647117 0.644845 0.643293 0.63424 0.635752 0.637951 0.640845 0.644438 0.648737 0.653748 0.659476 0.665925 0.673101 0.681009 0.689447 0.698209 0.707297 0.71671 0.726451 0.736518 0.746913 0.757635 0.768685 0.780062 0.791573 0.803022 0.814408 0.825728 0.836978 0.848156 0.859259 0.870285 0.88123 0.892092 0.902713 0.912933 0.922748 0.932155 0.94115 0.949731 0.957893 0.965634 0.972951 0.979841 0.986188 0.991873 0.996896 1.00125 1.00494 1.00796 1.01031 1.01199 1.013 1.01333 1.01299 1.01198 1.0103 1.00795 1.00493 1.00124 0.996882 0.991861 0.986177 0.979833 0.972945 0.96563 0.95789 0.949727 0.941145 0.932147 0.922737 0.912917 0.902691 0.892064 0.881194 0.870239 0.859203 0.848087 0.836896 0.82563 0.814295 0.802891 0.791422 0.77989 0.768492 0.75742 0.746675 0.736258 0.726167 0.716402 0.706964 0.697851 0.689064 0.680601 0.672668 0.66547 0.659002 0.653258 0.648234 0.643925 0.640323 0.637425 0.635223 0.633712 0.624719 0.626191 0.628322 0.631118 0.634585 0.638729 0.643555 0.649069 0.655275 0.662179 0.669785 0.6779 0.686329 0.695073 0.704132 0.713506 0.723197 0.733204 0.743528 0.754168 0.765125 0.776212 0.787243 0.798215 0.809124 0.819969 0.830747 0.841454 0.852089 0.862648 0.873129 0.883378 0.893243 0.902718 0.911801 0.920489 0.928777 0.936663 0.944144 0.951217 0.957879 0.964017 0.969516 0.974373 0.978587 0.982155 0.985076 0.987349 0.988972 0.989946 0.990269 0.989941 0.988964 0.987338 0.985063 0.982141 0.978572 0.974359 