<?xml version="1.0"?> 
<VTKFile type="StructuredGrid" version="0.1"> 
<StructuredGrid WholeExtent="0 100 0 50 0 0"> 
<Piece Extent="0 100 0 50 0 0"> 
<PointData Scalars="Temperature">
<DataArray type="Float32" Name="Temperature" format="ascii" NumberOfComponents="1"> 
8 7.96095 7.84339 7.65209 7.39951 7.10602 6.79918 6.51231 6.28207 6.14551 6.13658 6.28273 6.60176 7.09948 7.76854 8.5884 9.52669 10.5417 11.5854 12.6078 13.5597 14.397 15.0826 15.5885 15.897 16 15.894 15.5639 14.9975 14.1917 13.1539 11.9022 10.465 8.87997 7.19163 5.44867 3.70073 1.99511 0.373809 -1.12882 -2.48754 -3.68672 -4.71993 -5.58867 -6.30061 -6.86755 -7.3034 -7.62239 -7.83771 -7.96061 -8 -7.96061 -7.83771 -7.62239 -7.3034 -6.86755 -6.30061 -5.58867 -4.71993 -3.68672 -2.48754 -1.12882 0.373809 1.99511 3.70073 5.44867 7.19163 8.87997 10.465 11.9022 13.1539 14.1917 14.9975 15.5639 15.894 16 15.897 15.5885 15.0826 14.397 13.5597 12.6078 11.5854 10.5417 9.52669 8.5884 7.76854 7.09948 6.60176 6.28273 6.13658 6.14551 6.28207 6.51231 6.79918 7.10602 7.39951 7.65209 7.84339 7.96095 8 8.48966 8.44823 8.32353 8.12077 7.85344 7.54349 7.22064 6.92072 6.68316 6.54776 6.55091 6.72198 7.07986 7.63054 8.36575 9.26304 10.2872 11.393 12.5286 13.6396 14.6732 15.5816 16.3249 16.8733 17.2074 17.3189 17.2042 16.8471 16.2347 15.3637 14.2425 12.8908 11.3395 9.6296 7.80923 5.93113 4.04896 2.21374 0.470714 -1.14322 -2.60107 -3.88628 -4.99225 -5.92093 -6.68097 -7.28537 -7.74941 -8.08863 -8.31738 -8.44786 -8.48966 -8.44786 -8.31738 -8.08863 -7.74941 -7.28537 -6.68097 -5.92093 -4.99225 -3.88628 -2.60107 -1.14322 0.470714 2.21374 4.04896 5.93113 7.80923 9.6296 11.3395 12.8908 14.2425 15.3637 16.2347 16.8471 17.2042 17.3189 17.2074 16.8733 16.3249 15.5816 14.6732 13.6396 12.5286 11.393 10.2872 9.26304 8.36575 7.63054 7.07986 6.72198 6.55091 6.54776 6.68316 6.92072 7.22064 7.54349 7.85344 8.12077 8.32353 8.44823 8.48966 8.99891 8.955 8.82288 8.60822 8.32561 7.99867 7.65937 7.34625 7.10162 6.96818 6.98491 7.18317 7.58301 8.19056 8.99657 9.97657 11.0923 12.2949 13.5281 14.7334 15.8538 16.8378 17.6425 18.2358 18.5972 18.7177 18.5938 18.2081 17.5468 16.6069 15.3973 13.9397 12.2678 10.4257 8.46572 6.44481 4.42084 2.44883 0.577415 -1.15382 -2.71605 -4.09174 -5.27413 -6.26571 -7.07611 -7.71969 -8.21317 -8.57348 -8.81623 -8.9546 -8.99891 -8.9546 -8.81623 -8.57348 -8.21317 -7.71969 -7.07611 -6.26571 -5.27413 -4.09174 -2.71605 -1.15382 0.577415 2.44883 4.42084 6.44481 8.46572 10.4257 12.2678 13.9397 15.3973 16.6069 17.5468 18.2081 18.5938 18.7177 18.5972 18.2358 17.6425 16.8378 15.8538 14.7334 13.5281 12.2949 11.0923 9.97657 8.99657 8.19056 7.58301 7.18317 6.98491 6.96818 7.10162 7.34625 7.65937 7.99867 8.32561 8.60822 8.82288 8.955 8.99891 9.52813 9.48163 9.34181 9.11482 8.81637 8.4719 8.11575 7.78927 7.53786 7.40725 7.43915 7.66699 8.11204 8.78055 9.66225 10.7305 11.9438 13.2492 14.5863 15.8918 17.1043 18.1685 19.0383 19.6793 20.0695 20.1996 20.0659 19.65 18.937 17.924 16.621 15.0514 13.2519 11.2701 9.1627 6.991 4.81743 2.70117 0.694453 -1.16029 -2.83231 -4.30309 -5.56569 -6.62319 -7.48631 -8.17084 -8.69503 -9.07733 -9.33463 -9.4812 -9.52813 -9.4812 -9.33463 -9.07733 -8.69503 -8.17084 -7.48631 -6.62319 -5.56569 -4.30309 -2.83231 -1.16029 0.694453 2.70117 4.81743 6.991 9.1627 11.2701 13.2519 15.0514 16.621 17.924 18.937 19.65 20.0659 20.1996 20.0695 19.6793 19.0383 18.1685 17.1043 15.8918 14.5863 13.2492 11.9438 10.7305 9.66225 8.78055 8.11204 7.66699 7.43915 7.40725 7.53786 7.78927 8.11575 8.4719 8.81637 9.11482 9.34181 9.48163 9.52813 10.0777 10.0285 9.8807 9.64092 9.3261 8.96355 8.59013 8.25018 7.99231 7.86547 7.91419 8.17413 8.6678 9.40157 10.364 11.5262 12.8433 14.2581 15.7054 17.1172 18.4274 19.5766 20.5154 21.2068 21.6275 21.7678 21.6238 21.1758 20.4082 19.318 17.9162 16.2283 14.294 12.1648 9.90179 7.57106 5.23977 2.97153 0.82238 -1.16229 -2.94971 -4.52031 -5.86704 -6.99357 -7.91183 -8.63912 -9.19534 -9.60052 -9.87297 -10.0281 -10.0777 -10.0281 -9.87297 -9.60052 -9.19534 -8.63912 -7.91183 -6.99357 -5.86704 -4.52031 -2.94971 -1.16229 0.82238 2.97153 5.23977 7.57106 9.90179 12.1648 14.294 16.2283 17.9162 19.318 20.4082 21.1758 21.6238 21.7678 21.6275 21.2068 20.5154 19.5766 18.4274 17.1172 15.7054 14.2581 12.8433 11.5262 10.364 9.40157 8.6678 8.17413 7.91419 7.86547 7.99231 8.25018 8.59013 8.96355 9.3261 9.64092 9.8807 10.0285 10.0777 10.648 10.5961 10.4399 10.1869 9.85515 9.47398 9.08289 8.72936 8.46539 8.34331 8.41063 8.70531 9.25116 10.0547 11.1032 12.3653 13.7926 15.3234 16.8877 18.4121 19.8258 21.065 22.0767 22.8215 23.2746 23.4256 23.2706 22.7888 21.9635 20.7918 19.2856 17.4729 15.3964 13.1117 10.6847 8.18634 5.68895 3.26074 0.961764 -1.15947 -3.06807 -4.74339 -6.17826 -7.37704 -8.35293 -9.12484 -9.71443 -10.1434 -10.4316 -10.5955 -10.648 -10.5955 -10.4316 -10.1434 -9.71443 -9.12484 -8.35293 -7.37704 -6.17826 -4.74339 -3.06807 -1.15947 0.961764 3.26074 5.68895 8.18634 10.6847 13.1117 15.3964 17.4729 19.2856 20.7918 21.9635 22.7888 23.2706 23.4256 23.2746 22.8215 22.0767 21.065 19.8258 18.4121 16.8877 15.3234 13.7926 12.3653 11.1032 10.0547 9.25116 8.70531 8.41063 8.34331 8.46539 8.72936 9.08289 9.47398 9.85515 10.1869 10.4399 10.5961 10.648 11.2394 11.1846 11.0199 10.7531 10.4039 10.0035 9.59439 9.22719 8.95754 8.84126 8.92905 9.26124 9.863 10.7409 11.881 13.2493 14.7936 16.4474 18.1355 19.7791 21.3023 22.6366 23.7255 24.5268 25.014 25.1763 25.0098 24.4922 23.606 22.3482 20.7321 18.7878 16.5613 14.1129 11.513 8.83825 6.16607 3.56963 1.11318 -1.15146 -3.18721 -4.97231 -6.49948 -7.77381 -8.80987 -9.62831 -10.2526 -10.7064 -11.0109 -11.1841 -11.2394 -11.1841 -11.0109 -10.7064 -10.2526 -9.62831 -8.80987 -7.77381 -6.49948 -4.97231 -3.18721 -1.15146 1.11318 3.56963 6.16607 8.83825 11.513 14.1129 16.5613 18.7878 20.7321 22.3482 23.606 24.4922 25.0098 25.1763 25.014 24.5268 23.7255 22.6366 21.3023 19.7791 18.1355 16.4474 14.7936 13.2493 11.881 10.7409 9.863 9.26124 8.92905 8.84126 8.95754 9.22719 9.59439 10.0035 10.4039 10.7531 11.0199 11.1846 11.2394 11.8524 11.7945 11.6209 11.34 10.9727 10.5526 10.125 9.74407 9.46917 9.35984 9.47005 9.84265 10.5042 11.4614 12.6989 14.1798 15.848 17.6321 19.4511 21.2208 22.8598 24.2947 25.465 26.3259 26.8491 27.0234 26.8447 26.2894 25.339 23.9905 22.2585 20.1755 17.7912 15.1702 12.3885 9.5282 6.67225 3.89903 1.27724 -1.1379 -3.30696 -5.20704 -6.83077 -8.18406 -9.28292 -10.1498 -10.8103 -11.2898 -11.6113 -11.794 -11.8524 -11.794 -11.6113 -11.2898 -10.8103 -10.1498 -9.28292 -8.18406 -6.83077 -5.20704 -3.30696 -1.1379 1.27724 3.89903 6.67225 9.5282 12.3885 15.1702 17.7912 20.1755 22.2585 23.9905 25.339 26.2894 26.8447 27.0234 26.8491 26.3259 25.465 24.2947 22.8598 21.2208 19.4511 17.6321 15.848 14.1798 12.6989 11.4614 10.5042 9.84265 9.47005 9.35984 9.46917 9.74407 10.125 10.5526 10.9727 11.34 11.6209 11.7945 11.8524 12.4872 12.4263 12.2434 11.9478 11.5619 11.1215 10.6751 10.2804 10.0007 9.89953 10.0342 10.4503 11.1757 12.2172 13.5581 15.1584 16.9578 18.8796 20.8371 22.74 24.5011 26.0421 27.2984 28.2221 28.7834 28.9702 28.7787 28.1837 27.1657 25.7217 23.8677 21.6387 19.0883 16.2859 13.313 10.2576 7.20864 4.24982 1.45453 -1.11839 -3.42712 -5.44755 -7.17225 -8.60799 -9.77234 -10.6898 -11.3878 -11.894 -12.2331 -12.4256 -12.4872 -12.4256 -12.2331 -11.894 -11.3878 -10.6898 -9.77234 -8.60799 -7.17225 -5.44755 -3.42712 -1.11839 1.45453 4.24982 7.20864 10.2576 13.313 16.2859 19.0883 21.6387 23.8677 25.7217 27.1657 28.1837 28.7787 28.9702 28.7834 28.2221 27.2984 26.0421 24.5011 22.74 20.8371 18.8796 16.9578 15.1584 13.5581 12.2172 11.1757 10.4503 10.0342 9.89953 10.0007 10.2804 10.6751 11.1215 11.5619 11.9478 12.2434 12.4263 12.4872 13.1443 13.0802 12.8878 12.577 12.1718 11.7107 11.245 10.8365 10.5526 10.4609 10.6222 11.0849 11.8784 13.0095 14.4599 16.1867 18.1248 20.1922 22.2959 24.3393 26.2293 27.8822 29.2291 30.2191 30.8203 31.0204 30.8154 30.1786 29.0894 27.5449 25.5625 23.18 20.455 17.462 14.2883 11.028 7.77641 4.62288 1.64568 -1.09257 -3.54751 -5.69381 -7.52399 -9.04577 -10.2784 -11.2483 -11.9855 -12.5194 -12.8768 -13.0795 -13.1443 -13.0795 -12.8768 -12.5194 -11.9855 -11.2483 -10.2784 -9.04577 -7.52399 -5.69381 -3.54751 -1.09257 1.64568 4.62288 7.77641 11.028 14.2883 17.462 20.455 23.18 25.5625 27.5449 29.0894 30.1786 30.8154 31.0204 30.8203 30.2191 29.2291 27.8822 26.2293 24.3393 22.2959 20.1922 18.1248 16.1867 14.4599 13.0095 11.8784 11.0849 10.6222 10.4609 10.5526 10.8365 11.245 11.7107 12.1718 12.577 12.8878 13.0802 13.1443 13.824 13.7566 13.5544 13.2279 12.803 12.3204 11.8351 11.4129 11.1254 11.0443 11.2346 11.7472 12.6132 13.8395 15.4059 17.2664 19.351 21.572 23.83 26.0215 28.0473 29.8181 31.2605 32.3201 32.9635 33.1776 32.9583 32.2776 31.1135 29.4634 27.3461 24.8023 21.8938 18.7006 15.3161 11.8409 8.37675 5.0191 1.85132 -1.06001 -3.66791 -5.94577 -7.8861 -9.4976 -10.8013 -11.8259 -12.6037 -13.1664 -13.5426 -13.7559 -13.824 -13.7559 -13.5426 -13.1664 -12.6037 -11.8259 -10.8013 -9.4976 -7.8861 -5.94577 -3.66791 -1.06001 1.85132 5.0191 8.37675 11.8409 15.3161 18.7006 21.8938 24.8023 27.3461 29.4634 31.1135 32.2776 32.9583 33.1776 32.9635 32.3201 31.2605 29.8181 28.0473 26.0215 23.83 21.572 19.351 17.2664 15.4059 13.8395 12.6132 11.7472 11.2346 11.0443 11.1254 11.4129 11.8351 12.3204 12.803 13.2279 13.5544 13.7566 13.824 14.5268 14.4559 14.2435 13.901 13.4556 12.9511 12.4459 12.0099 11.7193 11.6504 11.872 12.4379 13.3811 14.7082 16.3974 18.399 20.6384 23.0214 25.4418 27.7895 29.9583 31.8531 33.3959 34.5289 35.2166 35.4454 35.2111 34.4842 33.2414 31.4804 29.2214 26.5082 23.4073 20.004 16.3983 12.6978 9.01087 5.43941 2.0721 -1.02031 -3.78812 -6.20339 -8.25864 -9.96367 -11.3414 -12.4228 -13.2427 -13.8352 -14.2309 -14.4552 -14.5268 -14.4552 -14.2309 -13.8352 -13.2427 -12.4228 -11.3414 -9.96367 -8.25864 -6.20339 -3.78812 -1.02031 2.0721 5.43941 9.01087 12.6978 16.3983 20.004 23.4073 26.5082 29.2214 31.4804 33.2414 34.4842 35.2111 35.4454 35.2166 34.5289 33.3959 31.8531 29.9583 27.7895 25.4418 23.0214 20.6384 18.399 16.3974 14.7082 13.3811 12.4379 11.872 11.6504 11.7193 12.0099 12.4459 12.9511 13.4556 13.901 14.2435 14.4559 14.5268 15.253 15.1786 14.9557 14.5964 14.1301 13.6031 13.0776 12.6279 12.335 12.2797 12.535 13.158 14.183 15.6168 17.4358 19.5864 21.9889 24.5425 27.1341 29.646 31.9652 33.9906 35.6389 36.849 37.5832 37.8274 37.5775 36.802 35.4767 33.5992 31.1915 28.3007 24.9979 21.3743 17.5368 13.6002 9.68001 5.88473 2.30869 -0.973049 -3.90792 -6.46662 -8.64172 -10.4442 -11.8988 -13.0393 -13.9028 -14.5262 -14.9423 -15.1778 -15.253 -15.1778 -14.9423 -14.5262 -13.9028 -13.0393 -11.8988 -10.4442 -8.64172 -6.46662 -3.90792 -0.973049 2.30869 5.88473 9.68001 13.6002 17.5368 21.3743 24.9979 28.3007 31.1915 33.5992 35.4767 36.802 37.5775 37.8274 37.5832 36.849 35.6389 33.9906 31.9652 29.646 27.1341 24.5425 21.9889 19.5864 17.4358 15.6168 14.183 13.158 12.535 12.2797 12.335 12.6279 13.0776 13.6031 14.1301 14.5964 14.9557 15.1786 15.253 16.003 15.925 15.6912 15.3148 14.8268 14.2767 13.7306 13.2673 12.9727 12.9327 13.2244 13.9081 15.02 16.5667 18.5226 20.8303 23.4045 26.1378 28.9094 31.5941 34.0714 36.2338 37.9931 39.2841 40.0672 40.3276 40.0612 39.2348 37.8229 35.8232 33.2596 30.1826 26.6681 22.8138 18.7335 14.5497 10.3854 6.35602 2.56175 -0.917798 -4.02708 -6.73541 -9.0354 -10.9392 -12.4739 -13.6757 -14.5845 -15.2399 -15.6769 -15.9241 -16.003 -15.9241 -15.6769 -15.2399 -14.5845 -13.6757 -12.4739 -10.9392 -9.0354 -6.73541 -4.02708 -0.917798 2.56175 6.35602 10.3854 14.5497 18.7335 22.8138 26.6681 30.1826 33.2596 35.8232 37.8229 39.2348 40.0612 40.3276 40.0672 39.2841 37.9931 36.2338 34.0714 31.5941 28.9094 26.1378 23.4045 20.8303 18.5226 16.5667 15.02 13.9081 13.2244 12.9327 12.9727 13.2673 13.7306 14.2767 14.8268 15.3148 15.6912 15.925 16.003 16.7772 16.6954 16.4505 16.0563 15.5461 14.9724 14.4053 13.9285 13.6331 13.61 13.9407 14.689 15.8929 17.5589 19.6592 22.1325 24.8874 27.8097 30.7705 33.6366 36.28 38.5864 40.4619 41.8379 42.6723 42.9497 42.666 41.7863 40.2835 38.1559 35.4289 32.1568 28.4207 24.3249 19.9905 15.548 11.1284 6.85424 2.83197 -0.854115 -4.14538 -7.0097 -9.43976 -11.4491 -13.067 -14.3323 -15.2881 -15.9766 -16.4352 -16.6945 -16.7772 -16.6945 -16.4352 -15.9766 -15.2881 -14.3323 -13.067 -11.4491 -9.43976 -7.0097 -4.14538 -0.854115 2.83197 6.85424 11.1284 15.548 19.9905 24.3249 28.4207 32.1568 35.4289 38.1559 40.2835 41.7863 42.666 42.9497 42.6723 41.8379 40.4619 38.5864 36.28 33.6366 30.7705 27.8097 24.8874 22.1325 19.6592 17.5589 15.8929 14.689 13.9407 13.61 13.6331 13.9285 14.4053 14.9724 15.5461 16.0563 16.4505 16.6954 16.7772 17.576 17.4903 17.2338 16.8214 16.2884 15.6905 15.1021 14.6119 14.3165 14.312 14.6846 15.5016 16.8029 18.5947 20.8472 23.4946 26.4397 29.5604 32.7199 35.7765 38.5942 41.0516 43.0492 44.5143 45.4024 45.6976 45.3959 44.4602 42.8623 40.6006 37.7026 34.2263 30.2583 25.9097 21.3095 16.5966 11.9102 7.38039 3.12006 -0.781549 -4.26258 -7.28942 -9.85488 -11.9739 -13.6781 -15.0094 -16.0139 -16.7366 -17.2176 -17.4893 -17.576 -17.4893 -17.2176 -16.7366 -16.0139 -15.0094 -13.6781 -11.9739 -9.85488 -7.28942 -4.26258 -0.781549 3.12006 7.38039 11.9102 16.5966 21.3095 25.9097 30.2583 34.2263 37.7026 40.6006 42.8623 44.4602 45.3959 45.6976 45.4024 44.5143 43.0492 41.0516 38.5942 35.7765 32.7199 29.5604 26.4397 23.4946 20.8472 18.5947 16.8029 15.5016 14.6846 14.312 14.3165 14.6119 15.1021 15.6905 16.2884 16.8214 17.2338 17.4903 17.576 18.3997 18.3101 18.0416 17.6105 17.054 16.4314 15.8214 15.318 15.0234 15.0393 15.4568 16.3467 17.7508 19.6753 22.088 24.9186 28.0633 31.3925 34.7606 38.017 41.0174 43.6331 45.7587 47.3171 48.2615 48.5753 48.2546 47.2604 45.563 43.161 40.0841 36.3942 32.1836 27.5707 22.6928 17.6973 12.7322 7.93546 3.42672 -0.69964 -4.37843 -7.57451 -10.2808 -12.5138 -14.3077 -15.7074 -16.7622 -17.5203 -18.0244 -18.309 -18.3997 -18.309 -18.0244 -17.5203 -16.7622 -15.7074 -14.3077 -12.5138 -10.2808 -7.57451 -4.37843 -0.69964 3.42672 7.93546 12.7322 17.6973 22.6928 27.5707 32.1836 36.3942 40.0841 43.161 45.563 47.2604 48.2546 48.5753 48.2615 47.3171 45.7587 43.6331 41.0174 38.017 34.7606 31.3925 28.0633 24.9186 22.088 19.6753 17.7508 16.3467 15.4568 15.0393 15.0234 15.318 15.8214 16.4314 17.054 17.6105 18.0416 18.3101 18.3997 19.2488 19.155 18.8743 18.4239 17.8433 17.1954 16.5635 16.0471 15.7543 15.7925 16.2578 17.225 18.7378 20.8021 23.3833 26.4063 29.7606 33.3085 36.8952 40.3611 43.553 46.3345 48.5941 50.2502 51.2535 51.5869 51.2463 50.1909 48.3894 45.8406 42.5766 38.6634 34.1993 29.3103 24.1422 18.8518 13.5957 8.52048 3.75269 -0.607917 -4.49268 -7.86489 -10.7177 -13.0691 -14.956 -16.4265 -17.5334 -18.3281 -18.856 -19.1539 -19.2488 -19.1539 -18.856 -18.3281 -17.5334 -16.4265 -14.956 -13.0691 -10.7177 -7.86489 -4.49268 -0.607917 3.75269 8.52048 13.5957 18.8518 24.1422 29.3103 34.1993 38.6634 42.5766 45.8406 48.3894 50.1909 51.2463 51.5869 51.2535 50.2502 48.5941 46.3345 43.553 40.3611 36.8952 33.3085 29.7606 26.4063 23.3833 20.8021 18.7378 17.225 16.2578 15.7925 15.7543 16.0471 16.5635 17.1954 17.8433 18.4239 18.8743 19.155 19.2488 20.1236 20.0256 19.7323 19.2619 18.6567 17.9828 17.3288 16.7996 16.5096 16.5721 17.0885 18.1375 19.7648 21.9763 24.7345 27.9595 31.5337 35.3108 39.1267 42.812 46.2044 49.1594 51.5592 53.3175 54.3826 54.7363 54.3751 53.2556 51.3452 48.6431 45.1835 41.0371 36.3083 31.1309 25.66 20.0616 14.5021 9.13649 4.09871 -0.505902 -4.60507 -8.16048 -11.1655 -13.6398 -15.6232 -17.167 -18.3279 -19.1603 -19.7128 -20.0244 -20.1236 -20.0244 -19.7128 -19.1603 -18.3279 -17.167 -15.6232 -13.6398 -11.1655 -8.16048 -4.60507 -0.505902 4.09871 9.13649 14.5021 20.0616 25.66 31.1309 36.3083 41.0371 45.1835 48.6431 51.3452 53.2556 54.3751 54.7363 54.3826 53.3175 51.5592 49.1594 46.2044 42.812 39.1267 35.3108 31.5337 27.9595 24.7345 21.9763 19.7648 18.1375 17.0885 16.5721 16.5096 16.7996 17.3288 17.9828 18.6567 19.2619 19.7323 20.0256 20.1236 21.0246 20.9221 20.6158 20.1251 19.4944 18.7942 18.1177 17.576 17.2898 17.3786 17.9495 19.085 20.833 23.1992 26.1433 29.5801 33.3848 37.4021 41.4579 45.3728 48.975 52.1116 54.658 56.5233 57.6528 58.0278 57.6449 56.4585 54.4344 51.5721 47.9084 43.5184 38.5133 33.0351 27.2481 21.3287 15.4528 9.78454 4.46553 -0.393102 -4.71534 -8.4612 -11.6243 -14.2262 -16.3095 -17.9293 -19.1459 -20.0174 -20.5952 -20.9209 -21.0246 -20.9209 -20.5952 -20.0174 -19.1459 -17.9293 -16.3095 -14.2262 -11.6243 -8.4612 -4.71534 -0.393102 4.46553 9.78454 15.4528 21.3287 27.2481 33.0351 38.5133 43.5184 47.9084 51.5721 54.4344 56.4585 57.6449 58.0278 57.6528 56.5233 54.658 52.1116 48.975 45.3728 41.4579 37.4021 33.3848 29.5801 26.1433 23.1992 20.833 19.085 17.9495 17.3786 17.2898 17.576 18.1177 18.7942 19.4944 20.1251 20.6158 20.9221 21.0246 21.952 21.845 21.5254 21.0136 20.357 19.6298 18.9306 18.3767 18.0953 18.2127 18.8414 20.0683 21.9434 24.4721 27.6112 31.2701 35.3162 39.5849 43.8917 48.0468 51.8683 55.1948 57.8945 59.8714 61.0683 61.4656 61.0601 59.8038 57.661 54.6315 50.7548 46.1106 40.8172 35.0252 28.9088 22.6547 16.4491 10.4657 4.85392 -0.269019 -4.82321 -8.76697 -12.0942 -14.8284 -17.0153 -18.7137 -19.9878 -20.8995 -21.5035 -21.8437 -21.952 -21.8437 -21.5035 -20.8995 -19.9878 -18.7137 -17.0153 -14.8284 -12.0942 -8.76697 -4.82321 -0.269019 4.85392 10.4657 16.4491 22.6547 28.9088 35.0252 40.8172 46.1106 50.7548 54.6315 57.661 59.8038 61.0601 61.4656 61.0683 59.8714 57.8945 55.1948 51.8683 48.0468 43.8917 39.5849 35.3162 31.2701 27.6112 24.4721 21.9434 20.0683 18.8414 18.2127 18.0953 18.3767 18.9306 19.6298 20.357 21.0136 21.5254 21.845 21.952 22.9063 22.7947 22.4613 21.928 21.2447 20.49 19.7678 19.202 18.9267 19.0748 19.7649 21.0883 23.0971 25.7964 29.1399 33.0314 37.3302 41.8618 46.4312 50.8373 54.8881 58.4128 61.2725 63.3661 64.6333 65.0539 64.6247 63.2956 61.029 57.8251 53.7261 48.8169 43.223 37.1039 30.6443 24.0415 17.4926 11.1811 5.26466 -0.133143 -4.9284 -9.07768 -12.5752 -15.4466 -17.7407 -19.5204 -20.8539 -21.8072 -22.4382 -22.7933 -22.9063 -22.7933 -22.4382 -21.8072 -20.8539 -19.5204 -17.7407 -15.4466 -12.5752 -9.07768 -4.9284 -0.133143 5.26466 11.1811 17.4926 24.0415 30.6443 37.1039 43.223 48.8169 53.7261 57.8251 61.029 63.2956 64.6247 65.0539 64.6333 63.3661 61.2725 58.4128 54.8881 50.8373 46.4312 41.8618 37.3302 33.0314 29.1399 25.7964 23.0971 21.0883 19.7649 19.0748 18.9267 19.202 19.7678 20.49 21.2447 21.928 22.4613 22.7947 22.9063 23.8879 23.7715 23.424 22.8685 22.158 21.3751 20.6298 20.0524 19.7844 19.9656 20.7209 22.1458 24.2951 27.1733 30.7311 34.866 39.4291 44.2356 49.0792 53.7476 58.0378 61.7696 64.7963 67.0117 68.3522 68.7971 68.3433 66.9381 64.5423 61.1566 56.826 51.6407 45.7336 39.2738 32.4566 25.4908 18.5847 11.9318 5.69855 0.015047 -5.03063 -9.39326 -13.0674 -16.0809 -18.486 -20.3497 -21.7447 -22.7408 -23.3995 -23.77 -23.8879 -23.77 -23.3995 -22.7408 -21.7447 -20.3497 -18.486 -16.0809 -13.0674 -9.39326 -5.03063 0.015047 5.69855 11.9318 18.5847 25.4908 32.4566 39.2738 45.7336 51.6407 56.826 61.1566 64.5423 66.9381 68.3433 68.7971 68.3522 67.0117 64.7963 61.7696 58.0378 53.7476 49.0792 44.2356 39.4291 34.866 30.7311 27.1733 24.2951 22.1458 20.7209 19.9656 19.7844 20.0524 20.6298 21.3751 22.158 22.8685 23.424 23.7715 23.8879 24.8971 24.7758 24.4138 23.8356 23.0971 22.2856 21.5168 20.9283 20.6688 20.8856 21.7098 23.2418 25.5386 28.6044 32.3863 36.7759 41.6152 46.7089 51.839 56.7811 61.3211 65.2689 68.47 70.8123 72.2293 72.6995 72.22 70.7356 68.2052 64.6301 60.0581 54.5852 48.352 41.5375 34.3482 27.0046 19.7268 12.7189 6.15639 0.176079 -5.1296 -9.71358 -13.5709 -16.7315 -19.2515 -21.2021 -22.6604 -23.7007 -24.3879 -24.7743 -24.8971 -24.7743 -24.3879 -23.7007 -22.6604 -21.2021 -19.2515 -16.7315 -13.5709 -9.71358 -5.1296 0.176079 6.15639 12.7189 19.7268 27.0046 34.3482 41.5375 48.352 54.5852 60.0581 64.6301 68.2052 70.7356 72.22 72.6995 72.2293 70.8123 68.47 65.2689 61.3211 56.7811 51.839 46.7089 41.6152 36.7759 32.3863 28.6044 25.5386 23.2418 21.7098 20.8856 20.6688 20.9283 21.5168 22.2856 23.0971 23.8356 24.4138 24.7758 24.8971 25.9343 25.808 25.4311 24.8296 24.0625 23.2218 22.4294 21.8302 21.5806 21.8355 22.7326 24.3772 26.8287 30.0909 34.1074 38.763 43.8909 49.2844 54.7135 59.9412 64.7418 68.9149 72.2977 74.7723 76.2691 76.7656 76.2594 74.6925 72.0219 68.2495 63.4263 57.6538 51.0813 43.8976 36.3211 28.5847 20.9204 13.5436 6.63901 0.350494 -5.22501 -10.0386 -14.0856 -17.3987 -20.0374 -22.0776 -23.6013 -24.6871 -25.4038 -25.8064 -25.9343 -25.8064 -25.4038 -24.6871 -23.6013 -22.0776 -20.0374 -17.3987 -14.0856 -10.0386 -5.22501 0.350494 6.63901 13.5436 20.9204 28.5847 36.3211 43.8976 51.0813 57.6538 63.4263 68.2495 72.0219 74.6925 76.2594 76.7656 76.2691 74.7723 72.2977 68.9149 64.7418 59.9412 54.7135 49.2844 43.8909 38.763 34.1074 30.0909 26.8287 24.3772 22.7326 21.8355 21.5806 21.8302 22.4294 23.2218 24.0625 24.8296 25.4311 25.808 25.9343 27 26.8685 26.4763 25.8508 25.0544 24.184 23.3679 22.7584 22.52 22.8157 23.7898 25.5528 28.1666 31.6343 35.896 40.8296 46.2587 51.9651 57.7059 63.2315 68.3037 72.7116 76.2837 78.8962 80.476 81 80.4659 78.8131 75.9965 72.0188 66.9341 60.8501 53.9244 46.3569 38.3778 30.233 22.1672 14.4071 7.14724 0.538841 -5.31656 -10.3681 -14.6117 -18.0824 -20.8439 -22.9768 -24.5679 -25.7005 -26.4475 -26.8668 -27 -26.8668 -26.4475 -25.7005 -24.5679 -22.9768 -20.8439 -18.0824 -14.6117 -10.3681 -5.31656 0.538841 7.14724 14.4071 22.1672 30.233 38.3778 46.3569 53.9244 60.8501 66.9341 72.0188 75.9965 78.8131 80.4659 81 80.476 78.8962 76.2837 72.7116 68.3037 63.2315 57.7059 51.9651 46.2587 40.8296 35.896 31.6343 28.1666 25.5528 23.7898 22.8157 22.52 22.7584 23.3679 24.184 25.0544 25.8508 26.4763 26.8685 27 28.0945 27.9576 27.5497 26.8998 26.0734 25.1727 24.3326 23.7133 23.4878 23.8269 24.8823 26.7696 29.5533 33.236 37.7539 42.9776 48.7209 54.7535 60.8194 66.6554 72.0106 76.6629 80.4322 83.1883 84.8546 85.4072 84.8441 83.1018 80.1335 75.9421 70.5854 64.1774 56.8847 48.918 40.5206 31.9515 23.4685 15.3105 7.68193 0.741678 -5.40392 -10.702 -15.1491 -18.783 -21.6713 -23.8998 -25.5604 -26.7413 -27.5193 -27.9558 -28.0945 -27.9558 -27.5193 -26.7413 -25.5604 -23.8998 -21.6713 -18.783 -15.1491 -10.702 -5.40392 0.741678 7.68193 15.3105 23.4685 31.9515 40.5206 48.918 56.8847 64.1774 70.5854 75.9421 80.1335 83.1018 84.8441 85.4072 84.8546 83.1883 80.4322 76.6629 72.0106 66.6554 60.8194 54.7535 48.7209 42.9776 37.7539 33.236 29.5533 26.7696 24.8823 23.8269 23.4878 23.7133 24.3326 25.1727 26.0734 26.8998 27.5497 27.9576 28.0945 29.2181 29.0758 28.6518 27.9767 27.1197 26.1882 25.324 24.6955 24.4842 24.8697 26.0108 28.0285 30.99 34.8975 39.6827 45.2092 51.2801 57.6528 64.0573 70.2164 75.8663 80.7732 84.7477 87.6532 89.4095 89.9918 89.3986 87.5633 84.437 80.0235 74.3842 67.6394 59.9651 51.5839 42.7519 33.7421 24.826 16.255 8.24393 0.959577 -5.48678 -11.0402 -15.698 -19.5005 -22.5198 -24.847 -26.5792 -27.8097 -28.6198 -29.0739 -29.2181 -29.0739 -28.6198 -27.8097 -26.5792 -24.847 -22.5198 -19.5005 -15.698 -11.0402 -5.48678 0.959577 8.24393 16.255 24.826 33.7421 42.7519 51.5839 59.9651 67.6394 74.3842 80.0235 84.437 87.5633 89.3986 89.9918 89.4095 87.6532 84.7477 80.7732 75.8663 70.2164 64.0573 57.6528 51.2801 45.2092 39.6827 34.8975 30.99 28.0285 26.0108 24.8697 24.4842 24.6955 25.324 26.1882 27.1197 27.9767 28.6518 29.0758 29.2181 30.3713 30.2235 29.7828 29.0821 28.1938 27.2309 26.3425 25.7053 25.5099 25.9446 27.1759 29.3305 32.478 36.6201 41.6844 47.5265 53.9388 60.6656 67.4227 73.9183 79.8749 85.0466 89.2346 92.2955 94.1453 94.7585 94.134 92.202 88.9117 84.2673 78.3342 71.2396 63.169 54.3572 45.0739 35.6068 26.2413 17.2418 8.83414 1.19311 -5.56481 -11.3826 -16.2583 -20.2351 -23.3898 -25.8186 -27.6246 -28.9062 -29.7491 -30.2214 -30.3713 -30.2214 -29.7491 -28.9062 -27.6246 -25.8186 -23.3898 -20.2351 -16.2583 -11.3826 -5.56481 1.19311 8.83414 17.2418 26.2413 35.6068 45.0739 54.3572 63.169 71.2396 78.3342 84.2673 88.9117 92.202 94.134 94.7585 94.1453 92.2955 89.2346 85.0466 79.8749 73.9183 67.4227 60.6656 53.9388 47.5265 41.6844 36.6201 32.478 29.3305 27.1759 25.9446 25.5099 25.7053 26.3425 27.2309 28.1938 29.0821 29.7828 30.2235 30.3713 31.5545 31.4009 30.9433 30.2162 29.2959 28.3011 27.3884 26.7431 26.5653 27.0523 28.3786 30.6764 34.0184 38.4054 43.7607 49.9316 56.6995 63.795 70.919 77.7647 84.0402 89.4874 93.8974 97.1198 99.0669 99.7122 99.0551 97.0226 93.5618 88.6778 82.4395 74.9816 66.4996 57.2408 47.4893 37.5476 27.716 18.2722 9.45342 1.44288 -5.63766 -11.7291 -16.83 -20.9869 -24.2813 -26.815 -28.6969 -30.0311 -30.9079 -31.3987 -31.5545 -31.3987 -30.9079 -30.0311 -28.6969 -26.815 -24.2813 -20.9869 -16.83 -11.7291 -5.63766 1.44288 9.45342 18.2722 27.716 37.5476 47.4893 57.2408 66.4996 74.9816 82.4395 88.6778 93.5618 97.0226 99.0551 99.7122 99.0669 97.1198 93.8974 89.4874 84.0402 77.7647 70.919 63.795 56.6995 49.9316 43.7607 38.4054 34.0184 30.6764 28.3786 27.0523 26.5653 26.7431 27.3884 28.3011 29.2959 30.2162 30.9433 31.4009 31.5545 32.768 32.6085 32.1335 31.3794 30.4265 29.3993 28.4621 27.8094 27.6509 28.1934 29.6194 32.0672 35.6124 40.2549 45.9134 52.4268 59.5648 67.0439 74.5495 81.7593 88.3664 94.0999 98.7405 102.131 104.179 104.858 104.167 102.03 98.392 93.2591 86.7041 78.8691 69.9602 60.2376 50.0004 39.5665 29.2516 19.3474 10.1027 1.70947 -5.70501 -12.0794 -17.4133 -21.7562 -25.1946 -27.8365 -29.7966 -31.1848 -32.0963 -32.6062 -32.768 -32.6062 -32.0963 -31.1848 -29.7966 -27.8365 -25.1946 -21.7562 -17.4133 -12.0794 -5.70501 1.70947 10.1027 19.3474 29.2516 39.5665 50.0004 60.2376 69.9602 78.8691 86.7041 93.2591 98.392 102.03 104.167 104.858 104.179 102.131 98.7405 94.0999 88.3664 81.7593 74.5495 67.0439 59.5648 52.4268 45.9134 40.2549 35.6124 32.0672 29.6194 28.1934 27.6509 27.8094 28.4621 29.3993 30.4265 31.3794 32.1335 32.6085 32.768 34.0122 33.8467 33.3539 32.5722 31.5859 30.5257 29.564 28.9046 28.7673 29.3684 30.8992 33.5039 37.2612 42.1701 48.1443 55.0143 62.5373 70.4153 78.3177 85.9058 92.8574 98.8884 103.769 107.333 109.486 110.2 109.474 107.228 103.407 98.0156 91.1321 82.9059 73.5541 63.3506 52.6097 41.6656 30.8499 20.4687 10.7829 1.9935 -5.76649 -12.4336 -18.008 -22.543 -26.1301 -28.8833 -30.9239 -32.3677 -33.3147 -33.8443 -34.0122 -33.8443 -33.3147 -32.3677 -30.9239 -28.8833 -26.1301 -22.543 -18.008 -12.4336 -5.76649 1.9935 10.7829 20.4687 30.8499 41.6656 52.6097 63.3506 73.5541 82.9059 91.1321 98.0156 103.407 107.228 109.474 110.2 109.486 107.333 103.769 98.8884 92.8574 85.9058 78.3177 70.4153 62.5373 55.0143 48.1443 42.1701 37.2612 33.5039 30.8992 29.3684 28.7673 28.9046 29.564 30.5257 31.5859 32.5722 33.3539 33.8467 34.0122 35.2876 35.1158 34.6048 33.7948 32.7745 31.6808 30.6945 30.0292 29.9148 30.5781 32.2187 34.9875 38.966 44.1525 50.4555 57.6963 65.6196 73.9123 82.227 90.208 97.5175 103.857 108.986 112.732 114.994 115.743 114.981 112.623 108.611 102.952 95.7275 87.0957 77.2848 66.5827 55.3198 43.8471 32.5126 21.6374 11.4949 2.29559 -5.82175 -12.7913 -18.6144 -23.3476 -27.0879 -29.9558 -32.0792 -33.58 -34.5637 -35.1133 -35.2876 -35.1133 -34.5637 -33.58 -32.0792 -29.9558 -27.0879 -23.3476 -18.6144 -12.7913 -5.82175 2.29559 11.4949 21.6374 32.5126 43.8471 55.3198 66.5827 77.2848 87.0957 95.7275 102.952 108.611 112.623 114.981 115.743 114.994 112.732 108.986 103.857 97.5175 90.208 82.227 73.9123 65.6196 57.6963 50.4555 44.1525 38.966 34.9875 32.2187 30.5781 29.9148 30.0292 30.6945 31.6808 32.7745 33.7948 34.6048 35.1158 35.2876 36.5944 36.4163 35.8866 35.0477 33.9926 32.865 31.8541 31.1835 31.0941 31.823 33.5788 36.519 40.7281 46.2036 52.8486 60.4751 68.8145 77.5379 86.2807 94.6699 102.351 109.011 114.398 118.332 120.707 121.493 120.693 118.219 114.009 108.072 100.495 91.4423 81.1555 69.9369 58.1332 46.113 34.2413 22.8547 12.2397 2.61636 -5.87044 -13.1525 -19.2323 -24.1699 -28.0682 -31.0542 -33.2628 -34.8222 -35.8434 -36.4137 -36.5944 -36.4137 -35.8434 -34.8222 -33.2628 -31.0542 -28.0682 -24.1699 -19.2323 -13.1525 -5.87044 2.61636 12.2397 22.8547 34.2413 46.113 58.1332 69.9369 81.1555 91.4423 100.495 108.072 114.009 118.219 120.693 121.493 120.707 118.332 114.398 109.011 102.351 94.6699 86.2807 77.5379 68.8145 60.4751 52.8486 46.2036 40.7281 36.519 33.5788 31.823 31.0941 31.1835 31.8541 32.865 33.9926 35.0477 35.8866 36.4163 36.5944 37.9331 37.7485 37.1997 36.3312 35.2407 34.0786 33.043 32.3681 32.3057 33.1037 34.9802 38.0993 42.5488 48.325 55.3258 63.3529 72.1246 81.2953 90.4826 99.2952 107.362 114.355 120.01 124.138 126.63 127.455 126.616 124.021 119.606 113.381 105.438 95.9496 85.1699 73.4162 61.0526 48.4655 36.0377 24.122 13.0182 2.95645 -5.91216 -13.5171 -19.8617 -25.0103 -29.0714 -32.1789 -34.4751 -36.0947 -37.1544 -37.7457 -37.9331 -37.7457 -37.1544 -36.0947 -34.4751 -32.1789 -29.0714 -25.0103 -19.8617 -13.5171 -5.91216 2.95645 13.0182 24.122 36.0377 48.4655 61.0526 73.4162 85.1699 95.9496 105.438 113.381 119.606 124.021 126.616 127.455 126.63 124.138 120.01 114.355 107.362 99.2952 90.4826 81.2953 72.1246 63.3529 55.3258 48.325 42.5488 38.0993 34.9802 33.1037 32.3057 32.3681 33.043 34.0786 35.2407 36.3312 37.1997 37.7485 37.9331 39.304 39.1127 38.5444 37.6458 36.5191 35.3219 34.2617 33.5833 33.55 34.4209 36.4237 39.7295 44.4293 50.5184 57.8888 66.3322 75.5526 85.1876 94.8361 104.088 112.554 119.892 125.825 130.155 132.768 133.634 132.753 130.034 125.407 118.884 110.561 100.621 89.3314 77.0237 64.0805 50.9067 37.9037 25.4406 13.8314 3.31651 -5.94656 -13.8848 -20.5028 -25.8688 -30.0976 -33.3302 -35.7163 -37.3977 -38.4969 -39.1099 -39.304 -39.1099 -38.4969 -37.3977 -35.7163 -33.3302 -30.0976 -25.8688 -20.5028 -13.8848 -5.94656 3.31651 13.8314 25.4406 37.9037 50.9067 64.0805 77.0237 89.3314 100.621 110.561 118.884 125.407 130.034 132.753 133.634 132.768 130.155 125.825 119.892 112.554 104.088 94.8361 85.1876 75.5526 66.3322 57.8888 50.5184 44.4293 39.7295 36.4237 34.4209 33.55 33.5833 34.2617 35.3219 36.5191 37.6458 38.5444 39.1127 39.304 40.7076 40.5095 39.9211 38.9916 37.8281 36.5954 35.5106 34.8295 34.8276 35.7752 37.9101 41.4105 46.3708 52.7852 60.5397 69.4153 79.1014 89.218 99.3448 109.052 117.933 125.628 131.849 136.388 139.127 140.034 139.112 136.262 131.416 124.584 115.868 105.462 9