<?xml version="1.0"?> 
<VTKFile type="StructuredGrid" version="0.1"> 
<StructuredGrid WholeExtent="0 30 0 30 0 0"> 
<Piece Extent="0 30 0 30 0 0"> 
<PointData Scalars="Temperature">
<DataArray type="Float32" Name="Temperature" format="ascii" NumberOfComponents="1"> 
0 0 0 0 0 0 0 0 0 0 0 0 0 0 0 0 0 0 0 0 0 0 0 0 0 0 0 0 0 0 0 0 0.0434076 0.0838153 0.121223 0.155631 0.18704 0.215448 0.240857 0.263266 0.282675 0.299084 0.312494 0.322904 0.330314 0.334724 0.336134 0.334556 0.330003 0.322474 0.311968 0.298487 0.28203 0.262597 0.240188 0.214803 0.186442 0.155106 0.120793 0.0835047 0.0432403 0 0 0.0838953 0.161992 0.23429 0.300788 0.361489 0.41639 0.465492 0.508796 0.546301 0.578007 0.603915 0.624023 0.638333 0.646844 0.649556 0.646495 0.637684 0.623125 0.602816 0.576759 0.544953 0.507398 0.464095 0.415042 0.360241 0.29969 0.233391 0.161343 0.0835458 0 0 0.121463 0.234529 0.339199 0.435471 0.523346 0.602825 0.673906 0.736591 0.790878 0.836769 0.874262 0.903359 0.924058 0.936361 0.940267 0.935814 0.923043 0.901953 0.872544 0.834817 0.78877 0.734404 0.67172 0.600717 0.521394 0.433753 0.337793 0.233514 0.120917 0 0 0.156111 0.301428 0.435951 0.559679 0.672613 0.774753 0.866098 0.946649 1.01641 1.07537 1.12354 1.16091 1.18749 1.20327 1.20827 1.20252 1.18608 1.15896 1.12115 1.07266 1.01348 0.943615 0.863064 0.771827 0.669904 0.557295 0.434 0.300019 0.155353 0 0 0.18784 0.362688 0.524546 0.673413 0.809289 0.932174 1.04207 1.13897 1.22289 1.29381 1.35174 1.39668 1.42863 1.44759 1.45355 1.4466 1.4268 1.39414 1.34864 1.29029 1.21908 1.13503 1.03813 0.928373 0.805769 0.670315 0.522012 0.360858 0.186854 0 0 0.216648 0.418309 0.604984 0.776673 0.933374 1.07509 1.20182 1.31356 1.41031 1.49208 1.55887 1.61066 1.64747 1.66929 1.67613 1.66806 1.64519 1.6075 1.55501 1.4877 1.40558 1.30865 1.19691 1.07035 0.92899 0.772815 0.601828 0.41603 0.215421 0 0 0.242537 0.468292 0.677265 0.869458 1.04487 1.2035 1.34534 1.47041 1.5787 1.6702 1.74492 1.80286 1.84402 1.8684 1.87599 1.86691 1.84126 1.79904 1.74026 1.6649 1.57297 1.46447 1.33941 1.19777 1.03957 0.864792 0.673449 0.465535 0.241052 0 0 0.265505 0.512635 0.74139 0.951768 1.14377 1.3174 1.47265 1.60953 1.72803 1.82815 1.9099 1.97328 2.01827 2.0449 2.05314 2.04314 2.01501 1.96876 1.90438 1.82188 1.72125 1.6025 1.46563 1.31063 1.1375 0.946249 0.736874 0.509374 0.263749 0 0 0.285554 0.55134 0.797357 1.0236 1.23008 1.41679 1.58373 1.73091 1.85831 1.96594 2.05381 2.12191 2.17023 2.19879 2.20758 2.19675 2.16644 2.11665 2.04739 1.95865 1.85043 1.72274 1.57556 1.40891 1.22279 1.01718 0.792104 0.547546 0.283512 0 0 0.302684 0.584406 0.845167 1.08497 1.3038 1.50168 1.6786 1.83455 1.96954 2.08358 2.17665 2.24875 2.2999 2.33009 2.33931 2.32774 2.29555 2.24273 2.16928 2.0752 1.9605 1.82517 1.66922 1.49264 1.29543 1.0776 0.839138 0.580052 0.300339 0 0 0.316893 0.611833 0.88482 1.13585 1.36493 1.57206 1.75724 1.92046 2.06173 2.18104 2.27841 2.35382 2.40727 2.43878 2.44833 2.43612 2.40233 2.34697 2.27004 2.17154 2.05146 1.90982 1.74659 1.5618 1.35543 1.12749 0.877977 0.606891 0.314232 0 0 0.328182 0.633621 0.916316 1.17627 1.41347 1.62794 1.81966 1.98863 2.13486 2.25835 2.3591 2.4371 2.49235 2.52487 2.53463 2.52187 2.4868 2.4294 2.34969 2.24766 2.12332 1.97666 1.80769 1.61639 1.40279 1.16686 0.908621 0.628064 0.32519 0 0 0.336552 0.64977 0.939655 1.20621 1.44942 1.66931 1.86585 2.03907 2.18895 2.3155 2.41871 2.49859 2.55514 2.58835 2.59823 2.58501 2.54894 2.49001 2.40822 2.30357 2.17607 2.02571 1.8525 1.65643 1.4375 1.19571 0.931069 0.64357 0.333213 0 0 0.342002 0.660281 0.954837 1.22567 1.47278 1.69617 1.89583 2.07177 2.22399 2.35248 2.45725 2.5383 2.59563 2.62923 2.63911 2.62553 2.58876 2.52879 2.44562 2.33927 2.20972 2.05697 1.88103 1.68189 1.45956 1.21404 0.945322 0.653409 0.338302 0 0 0.344532 0.665153 0.961862 1.23466 1.48355 1.70852 1.90958 2.08674 2.23998 2.36931 2.47472 2.55623 2.61382 2.64751 2.65728 2.64343 2.60625 2.54575 2.46191 2.35475 2.22425 2.07043 1.89328 1.6928 1.46899 1.22185 0.951379 0.657582 0.340456 0 0.00361231 0.347144 0.666815 0.962626 1.23458 1.48267 1.7069 1.90727 2.08378 2.23644 2.36523 2.47016 2.55123 2.60844 2.6418 2.65129 2.63725 2.59999 2.53952 2.45584 2.34895 2.21885 2.06554 1.88901 1.68927 1.46632 1.22016 0.950786 0.658201 0.342404 0.00339516 0.0144493 0.352838 0.667697 0.959027 1.22683 1.4711 1.69184 1.88905 2.06273 2.21289 2.33951 2.44261 2.52217 2.57821 2.61071 2.61969 2.6055 2.56852 2.50875 2.42619 2.32083 2.19267 2.04173 1.86799 1.67145 1.45212 1.21 0.945088 0.657379 0.346877 0.0135807 0.0325108 0.361615 0.6678 0.951064 1.21141 1.44883 1.66334 1.85492 2.02359 2.16933 2.29216 2.39206 2.46904 2.52311 2.55425 2.56248 2.54821 2.51186 2.45344 2.37294 2.27037 2.14572 1.999 1.83021 1.63934 1.42639 1.19138 0.934283 0.655116 0.353873 0.0305565 0.057797 0.373475 0.667122 0.938737 1.18832 1.41587 1.62139 1.80488 1.96634 2.10577 2.22316 2.31852 2.39185 2.44315 2.47242 2.47966 2.46535 2.42999 2.37357 2.2961 2.19758 2.078 1.93736 1.77568 1.59293 1.38913 1.16428 0.918373 0.651411 0.363394 0.0543226 0.0903079 0.388418 0.665664 0.922046 1.15756 1.37222 1.56601 1.73893 1.89099 2.02219 2.13252 2.22199 2.2906 2.33834 2.36522 2.37123 2.35694 2.32292 2.26917 2.19568 2.10246 1.9895 1.85681 1.70439 1.53223 1.34034 1.12872 0.897358 0.646265 0.375439 0.0848791 0.130043 0.406444 0.663427 0.900992 1.11914 1.31787 1.49718 1.65707 1.79755 1.91861 2.02025 2.10247 2.16528 2.20867 2.23264 2.23719 2.22298 2.19065 2.14021 2.07167 1.985 1.88023 1.75735 1.61635 1.45724 1.28002 1.08468 0.871237 0.639679 0.390008 0.122226 0.177003 0.427552 0.660409 0.875573 1.07304 1.25282 1.41491 1.55931 1.68601 1.79502 1.88634 1.95996 2.01589 2.05414 2.07468 2.07754 2.06345 2.03318 1.98672 1.92406 1.84522 1.75019 1.63896 1.51155 1.36795 1.20816 1.03218 0.84001 0.63165 0.407101 0.166363 0.231188 0.451744 0.656611 0.845791 1.01928 1.17709 1.3192 1.44563 1.55637 1.65142 1.73078 1.79446 1.84245 1.87475 1.89136 1.89228 1.87838 1.85051 1.80867 1.75287 1.6831 1.59937 1.50167 1.39 1.26437 1.12477 0.971208 0.803677 0.622181 0.426719 0.21729 0.292597 0.479018 0.652034 0.811645 0.957851 1.09065 1.21005 1.31604 1.40863 1.48781 1.55359 1.60596 1.64493 1.6705 1.68266 1.68141 1.66774 1.64263 1.60608 1.55809 1.49865 1.42778 1.34546 1.2517 1.1465 1.02985 0.901767 0.76224 0.611271 0.44886 0.275008 0.361231 0.509375 0.646676 0.773135 0.888751 0.993525 1.08746 1.17055 1.24279 1.3042 1.35476 1.39448 1.42336 1.44139 1.44858 1.44493 1.43155 1.40956 1.37895 1.33972 1.29187 1.23541 1.17033 1.09664 1.01433 0.9234 0.823856 0.715696 0.598919 0.473526 0.339516 0.43709 0.542815 0.640538 0.730261 0.811982 0.885703 0.951422 1.00914 1.05886 1.10057 1.13429 1.16 1.17771 1.18743 1.18914 1.18285 1.16981 1.15128 1.12726 1.09776 1.06276 1.02227 0.976293 0.924825 0.867866 0.805416 0.737477 0.664047 0.585126 0.500716 0.410815 0.520173 0.579337 0.633621 0.683023 0.727545 0.767186 0.801945 0.831825 0.856823 0.87694 0.892177 0.902533 0.908007 0.908601 0.904315 0.895147 0.882507 0.867804 0.851038 0.832208 0.811315 0.788359 0.76334 0.736257 0.70711 0.675901 0.642628 0.607292 0.569892 0.53043 0.488904 0.610481 0.618943 0.625923 0.631422 0.635439 0.637974 0.639028 0.6386 0.63669 0.633299 0.628427 0.622072 0.614237 0.604919 0.59412 0.581839 0.56965 0.559125 0.550265 0.54307 0.537539 0.533673 0.531471 0.530934 0.532062 0.534854 0.53931 0.545431 0.553217 0.562668 0.573783 0.708014 0.661631 0.617446 0.575456 0.535664 0.498068 0.462669 0.429466 0.39846 0.36965 0.343037 0.318621 0.296401 0.276378 0.258552 0.242922 0.231237 0.225245 0.224947 0.230342 0.241431 0.258213 0.280688 0.308857 0.342719 0.382274 0.427523 0.478465 0.535101 0.59743 0.665452 0.812771 0.707402 0.608188 0.515127 0.42822 0.347467 0.272868 0.204422 0.14213 0.0859925 0.0360084 -0.00782197 -0.0454985 -0.0770213 -0.10239 -0.121605 -0.132732 -0.133836 -0.124917 -0.105974 -0.0770089 -0.0380204 0.010991 0.0700255 0.139083 0.218164 0.307267 0.406394 0.515543 0.634716 0.763912 </DataArray> 
</PointData> 
<Points> 
<DataArray type="Float32" NumberOfComponents="3"> 
0 0 0 0.1 0 0 0.2 0 0 0.3 0 0 0.4 0 0 0.5 0 0 0.6 0 0 0.7 0 0 0.8 0 0 0.9 0 0 1 0 0 1.1 0 0 1.2 0 0 1.3 0 0 1.4 0 0 1.5 0 0 1.6 0 0 1.7 0 0 1.8 0 0 1.9 0 0 2 0 0 2.1 0 0 2.2 0 0 2.3 0 0 2.4 0 0 2.5 0 0 2.6 0 0 2.7 0 0 2.8 0 0 2.9 0 0 3 0 0 0 0.0666667 0 0.1 0.0666667 0 0.2 0.0666667 0 0.3 0.0666667 0 0.4 0.0666667 0 0.5 0.0666667 0 0.6 0.0666667 0 0.7 0.0666667 0 0.8 0.0666667 0 0.9 0.0666667 0 1 0.0666667 0 1.1 0.0666667 0 1.2 0.0666667 0 1.3 0.0666667 0 1.4 0.0666667 0 1.5 0.0666667 0 1.6 0.0666667 0 1.7 0.0666667 0 1.8 0.0666667 0 1.9 0.0666667 0 2 0.0666667 0 2.1 0.0666667 0 2.2 0.0666667 0 2.3 0.0666667 0 2.4 0.0666667 0 2.5 0.0666667 0 2.6 0.0666667 0 2.7 0.0666667 0 2.8 0.0666667 0 2.9 0.0666667 0 3 0.0666667 0 0 0.133333 0 0.1 0.133333 0 0.2 0.133333 0 0.3 0.133333 0 0.4 0.133333 0 0.5 0.133333 0 0.6 0.133333 0 0.7 0.133333 0 0.8 0.133333 0 0.9 0.133333 0 1 0.133333 0 1.1 0.133333 0 1.2 0.133333 0 1.3 0.133333 0 1.4 0.133333 0 1.5 0.133333 0 1.6 0.133333 0 1.7 0.133333 0 1.8 0.133333 0 1.9 0.133333 0 2 0.133333 0 2.1 0.133333 0 2.2 0.133333 0 2.3 0.133333 0 2.4 0.133333 0 2.5 0.133333 0 2.6 0.133333 0 2.7 0.133333 0 2.8 0.133333 0 2.9 0.133333 0 3 0.133333 0 0 0.2 0 0.1 0.2 0 0.2 0.2 0 0.3 0.2 0 0.4 0.2 0 0.5 0.2 0 0.6 0.2 0 0.7 0.2 0 0.8 0.2 0 0.9 0.2 0 1 0.2 0 1.1 0.2 0 1.2 0.2 0 1.3 0.2 0 1.4 0.2 0 1.5 0.2 0 1.6 0.2 0 1.7 0.2 0 1.8 0.2 0 1.9 0.2 0 2 0.2 0 2.1 0.2 0 2.2 0.2 0 2.3 0.2 0 2.4 0.2 0 2.5 0.2 0 2.6 0.2 0 2.7 0.2 0 2.8 0.2 0 2.9 0.2 0 3 0.2 0 0 0.266667 0 0.1 0.266667 0 0.2 0.266667 0 0.3 0.266667 0 0.4 0.266667 0 0.5 0.266667 0 0.6 0.266667 0 0.7 0.266667 0 0.8 0.266667 0 0.9 0.266667 0 1 0.266667 0 1.1 0.266667 0 1.2 0.266667 0 1.3 0.266667 0 1.4 0.266667 0 1.5 0.266667 0 1.6 0.266667 0 1.7 0.266667 0 1.8 0.266667 0 1.9 0.266667 0 2 0.266667 0 2.1 0.266667 0 2.2 0.266667 0 2.3 0.266667 0 2.4 0.266667 0 2.5 0.266667 0 2.6 0.266667 0 2.7 0.266667 0 2.8 0.266667 0 2.9 0.266667 0 3 0.266667 0 0 0.333333 0 0.1 0.333333 0 0.2 0.333333 0 0.3 0.333333 0 0.4 0.333333 0 0.5 0.333333 0 0.6 0.333333 0 0.7 0.333333 0 0.8 0.333333 0 0.9 0.333333 0 1 0.333333 0 1.1 0.333333 0 1.2 0.333333 0 1.3 0.333333 0 1.4 0.333333 0 1.5 0.333333 0 1.6 0.333333 0 1.7 0.333333 0 1.8 0.333333 0 1.9 0.333333 0 2 0.333333 0 2.1 0.333333 0 2.2 0.333333 0 2.3 0.333333 0 2.4 0.333333 0 2.5 0.333333 0 2.6 0.333333 0 2.7 0.333333 0 2.8 0.333333 0 2.9 0.333333 0 3 0.333333 0 0 0.4 0 0.1 0.4 0 0.2 0.4 0 0.3 0.4 0 0.4 0.4 0 0.5 0.4 0 0.6 0.4 0 0.7 0.4 0 0.8 0.4 0 0.9 0.4 0 1 0.4 0 1.1 0.4 0 1.2 0.4 0 1.3 0.4 0 1.4 0.4 0 1.5 0.4 0 1.6 0.4 0 1.7 0.4 0 1.8 0.4 0 1.9 0.4 0 2 0.4 0 2.1 0.4 0 2.2 0.4 0 2.3 0.4 0 2.4 0.4 0 2.5 0.4 0 2.6 0.4 0 2.7 0.4 0 2.8 0.4 0 2.9 0.4 0 3 0.4 0 0 0.466667 0 0.1 0.466667 0 0.2 0.466667 0 0.3 0.466667 0 0.4 0.466667 0 0.5 0.466667 0 0.6 0.466667 0 0.7 0.466667 0 0.8 0.466667 0 0.9 0.466667 0 1 0.466667 0 1.1 0.466667 0 1.2 0.466667 0 1.3 0.466667 0 1.4 0.466667 0 1.5 0.466667 0 1.6 0.466667 0 1.7 0.466667 0 1.8 0.466667 0 1.9 0.466667 0 2 0.466667 0 2.1 0.466667 0 2.2 0.466667 0 2.3 0.466667 0 2.4 0.466667 0 2.5 0.466667 0 2.6 0.466667 0 2.7 0.466667 0 2.8 0.466667 0 2.9 0.466667 0 3 0.466667 0 0 0.533333 0 0.1 0.533333 0 0.2 0.533333 0 0.3 0.533333 0 0.4 0.533333 0 0.5 0.533333 0 0.6 0.533333 0 0.7 0.533333 0 0.8 0.533333 0 0.9 0.533333 0 1 0.533333 0 1.1 0.533333 0 1.2 0.533333 0 1.3 0.533333 0 1.4 0.533333 0 1.5 0.533333 0 1.6 0.533333 0 1.7 0.533333 0 1.8 0.533333 0 1.9 0.533333 0 2 0.533333 0 2.1 0.533333 0 2.2 0.533333 0 2.3 0.533333 0 2.4 0.533333 0 2.5 0.533333 0 2.6 0.533333 0 2.7 0.533333 0 2.8 0.533333 0 2.9 0.533333 0 3 0.533333 0 0 0.6 0 0.1 0.6 0 0.2 0.6 0 0.3 0.6 0 0.4 0.6 0 0.5 0.6 0 0.6 0.6 0 0.7 0.6 0 0.8 0.6 0 0.9 0.6 0 1 0.6 0 1.1 0.6 0 1.2 0.6 0 1.3 0.6 0 1.4 0.6 0 1.5 0.6 0 1.6 0.6 0 1.7 0.6 0 1.8 0.6 0 1.9 0.6 0 2 0.6 0 2.1 0.6 0 2.2 0.6 0 2.3 0.6 0 2.4 0.6 0 2.5 0.6 0 2.6 0.6 0 2.7 0.6 0 2.8 0.6 0 2.9 0.6 0 3 0.6 0 0 0.666667 0 0.1 0.666667 0 0.2 0.666667 0 0.3 0.666667 0 0.4 0.666667 0 0.5 0.666667 0 0.6 0.666667 0 0.7 0.666667 0 0.8 0.666667 0 0.9 0.666667 0 1 0.666667 0 1.1 0.666667 0 1.2 0.666667 0 1.3 0.666667 0 1.4 0.666667 0 1.5 0.666667 0 1.6 0.666667 0 1.7 0.666667 0 1.8 0.666667 0 1.9 0.666667 0 2 0.666667 0 2.1 0.666667 0 2.2 0.666667 0 2.3 0.666667 0 2.4 0.666667 0 2.5 0.666667 0 2.6 0.666667 0 2.7 0.666667 0 2.8 0.666667 0 2.9 0.666667 0 3 0.666667 0 0 0.733333 0 0.1 0.733333 0 0.2 0.733333 0 0.3 0.733333 0 0.4 0.733333 0 0.5 0.733333 0 0.6 0.733333 0 0.7 0.733333 0 0.8 0.733333 0 0.9 0.733333 0 1 0.733333 0 1.1 0.733333 0 1.2 0.733333 0 1.3 0.733333 0 1.4 0.733333 0 1.5 0.733333 0 1.6 0.733333 0 1.7 0.733333 0 1.8 0.733333 0 1.9 0.733333 0 2 0.733333 0 2.1 0.733333 0 2.2 0.733333 0 2.3 0.733333 0 2.4 0.733333 0 2.5 0.733333 0 2.6 0.733333 0 2.7 0.733333 0 2.8 0.733333 0 2.9 0.733333 0 3 0.733333 0 0 0.8 0 0.1 0.8 0 0.2 0.8 0 0.3 0.8 0 0.4 0.8 0 0.5 0.8 0 0.6 0.8 0 0.7 0.8 0 0.8 0.8 0 0.9 0.8 0 1 0.8 0 1.1 0.8 0 1.2 0.8 0 1.3 0.8 0 1.4 0.8 0 1.5 0.8 0 1.6 0.8 0 1.7 0.8 0 1.8 0.8 0 1.9 0.8 0 2 0.8 0 2.1 0.8 0 2.2 0.8 0 2.3 0.8 0 2.4 0.8 0 2.5 0.8 0 2.6 0.8 0 2.7 0.8 0 2.8 0.8 0 2.9 0.8 0 3 0.8 0 0 0.866667 0 0.1 0.866667 0 0.2 0.866667 0 0.3 0.866667 0 0.4 0.866667 0 0.5 0.866667 0 0.6 0.866667 0 0.7 0.866667 0 0.8 0.866667 0 0.9 0.866667 0 1 0.866667 0 1.1 0.866667 0 1.2 0.866667 0 1.3 0.866667 0 1.4 0.866667 0 1.5 0.866667 0 1.6 0.866667 0 1.7 0.866667 0 1.8 0.866667 0 1.9 0.866667 0 2 0.866667 0 2.1 0.866667 0 2.2 0.866667 0 2.3 0.866667 0 2.4 0.866667 0 2.5 0.866667 0 2.6 0.866667 0 2.7 0.866667 0 2.8 0.866667 0 2.9 0.866667 0 3 0.866667 0 0 0.933333 0 0.1 0.933333 0 0.2 0.933333 0 0.3 0.933333 0 0.4 0.933333 0 0.5 0.933333 0 0.6 0.933333 0 0.7 0.933333 0 0.8 0.933333 0 0.9 0.933333 0 1 0.933333 0 1.1 0.933333 0 1.2 0.933333 0 1.3 0.933333 0 1.4 0.933333 0 1.5 0.933333 0 1.6 0.933333 0 1.7 0.933333 0 1.8 0.933333 0 1.9 0.933333 0 2 0.933333 0 2.1 0.933333 0 2.2 0.933333 0 2.3 0.933333 0 2.4 0.933333 0 2.5 0.933333 0 2.6 0.933333 0 2.7 0.933333 0 2.8 0.933333 0 2.9 0.933333 0 3 0.933333 0 0 1 0 0.1 1 0 0.2 1 0 0.3 1 0 0.4 1 0 0.5 1 0 0.6 1 0 0.7 1 0 0.8 1 0 0.9 1 0 1 1 0 1.1 1 0 1.2 1 0 1.3 1 0 1.4 1 0 1.5 1 0 1.6 1 0 1.7 1 0 1.8 1 0 1.9 1 0 2 1 0 2.1 1 0 2.2 1 0 2.3 1 0 2.4 1 0 2.5 1 0 2.6 1 0 2.7 1 0 2.8 1 0 2.9 1 0 3 1 0 0 1.06667 0 0.1 1.06667 0 0.2 1.06667 0 0.3 1.06667 0 0.4 1.06667 0 0.5 1.06667 0 0.6 1.06667 0 0.7 1.06667 0 0.8 1.06667 0 0.9 1.06667 0 1 1.06667 0 1.1 1.06667 0 1.2 1.06667 0 1.3 1.06667 0 1.4 1.06667 0 1.5 1.06667 0 1.6 1.06667 0 1.7 1.06667 0 1.8 1.06667 0 1.9 1.06667 0 2 1.06667 0 2.1 1.06667 0 2.2 1.06667 0 2.3 1.06667 0 2.4 1.06667 0 2.5 1.06667 0 2.6 1.06667 0 2.7 1.06667 0 2.8 1.06667 0 2.9 1.06667 0 3 1.06667 0 0 1.13333 0 0.1 1.13333 0 0.2 1.13333 0 0.3 1.13333 0 0.4 1.13333 0 0.5 1.13333 0 0.6 1.13333 0 0.7 1.13333 0 0.8 1.13333 0 0.9 1.13333 0 1 1.13333 0 1.1 1.13333 0 1.2 1.13333 0 1.3 1.13333 0 1.4 1.13333 0 1.5 1.13333 0 1.6 1.13333 0 1.7 1.13333 0 1.8 1.13333 0 1.9 1.13333 0 2 1.13333 0 2.1 1.13333 0 2.2 1.13333 0 2.3 1.13333 0 2.4 1.13333 0 2.5 1.13333 0 2.6 1.13333 0 2.7 1.13333 0 2.8 1.13333 0 2.9 1.13333 0 3 1.13333 0 0 1.2 0 0.1 1.2 0 0.2 1.2 0 0.3 1.2 0 0.4 1.2 0 0.5 1.2 0 0.6 1.2 0 0.7 1.2 0 0.8 1.2 0 0.9 1.2 0 1 1.2 0 1.1 1.2 0 1.2 1.2 0 1.3 1.2 0 1.4 1.2 0 1.5 1.2 0 1.6 1.2 0 1.7 1.2 0 1.8 1.2 0 1.9 1.2 0 2 1.2 0 2.1 1.2 0 2.2 1.2 0 2.3 1.2 0 2.4 1.2 0 2.5 1.2 0 2.6 1.2 0 2.7 1.2 0 2.8 1.2 0 2.9 1.2 0 3 1.2 0 0 1.26667 0 0.1 1.26667 0 0.2 1.26667 0 0.3 1.26667 0 0.4 1.26667 0 0.5 1.26667 0 0.6 1.26667 0 0.7 1.26667 0 0.8 1.26667 0 0.9 1.26667 0 1 1.26667 0 1.1 1.26667 0 1.2 1.26667 0 1.3 1.26667 0 1.4 1.26667 0 1.5 1.26667 0 1.6 1.26667 0 1.7 1.26667 0 1.8 1.26667 0 1.9 1.26667 0 2 1.26667 0 2.1 1.26667 0 2.2 1.26667 0 2.3 1.26667 0 2.4 1.26667 0 2.5 1.26667 0 2.6 1.26667 0 2.7 1.26667 0 2.8 1.26667 0 2.9 1.26667 0 3 1.26667 0 0 1.33333 0 0.1 1.33333 0 0.2 1.33333 0 0.3 1.33333 0 0.4 1.33333 0 0.5 1.33333 0 0.6 1.33333 0 0.7 1.33333 0 0.8 1.33333 0 0.9 1.33333 0 1 1.33333 0 1.1 1.33333 0 1.2 1.33333 0 1.3 1.33333 0 1.4 1.33333 0 1.5 1.33333 0 1.6 1.33333 0 1.7 1.33333 0 1.8 1.33333 0 1.9 1.33333 0 2 1.33333 0 2.1 1.33333 0 2.2 1.33333 0 2.3 1.33333 0 2.4 1.33333 0 2.5 1.33333 0 2.6 1.33333 0 2.7 1.33333 0 2.8 1.33333 0 2.9 1.33333 0 3 1.33333 0 0 1.4 0 0.1 1.4 0 0.2 1.4 0 0.3 1.4 0 0.4 1.4 0 0.5 1.4 0 0.6 1.4 0 0.7 1.4 0 0.8 1.4 0 0.9 1.4 0 1 1.4 0 1.1 1.4 0 1.2 1.4 0 1.3 1.4 0 1.4 1.4 0 1.5 1.4 0 1.6 1.4 0 1.7 1.4 0 1.8 1.4 0 1.9 1.4 0 2 1.4 0 2.1 1.4 0 2.2 1.4 0 2.3 1.4 0 2.4 1.4 0 2.5 1.4 0 2.6 1.4 0 2.7 1.4 0 2.8 1.4 0 2.9 1.4 0 3 1.4 0 0 1.46667 0 0.1 1.46667 0 0.2 1.46667 0 0.3 1.46667 0 0.4 1.46667 0 0.5 1.46667 0 0.6 1.46667 0 0.7 1.46667 0 0.8 1.46667 0 0.9 1.46667 0 1 1.46667 0 1.1 1.46667 0 1.2 1.46667 0 1.3 1.46667 0 1.4 1.46667 0 1.5 1.46667 0 1.6 1.46667 0 1.7 1.46667 0 1.8 1.46667 0 1.9 1.46667 0 2 1.46667 0 2.1 1.46667 0 2.2 1.46667 0 2.3 1.46667 0 2.4 1.46667 0 2.5 1.46667 0 2.6 1.46667 0 2.7 1.46667 0 2.8 1.46667 0 2.9 1.46667 0 3 1.46667 0 0 1.53333 0 0.1 1.53333 0 0.2 1.53333 0 0.3 1.53333 0 0.4 1.53333 0 0.5 1.53333 0 0.6 1.53333 0 0.7 1.53333 0 0.8 1.53333 0 0.9 1.53333 0 1 1.53333 0 1.1 1.53333 0 1.2 1.53333 0 1.3 1.53333 0 1.4 1.53333 0 1.5 1.53333 0 1.6 1.53333 0 1.7 1.53333 0 1.8 1.53333 0 1.9 1.53333 0 2 1.53333 0 2.1 1.53333 0 2.2 1.53333 0 2.3 1.53333 0 2.4 1.53333 0 2.5 1.53333 0 2.6 1.53333 0 2.7 1.53333 0 2.8 1.53333 0 2.9 1.53333 0 3 1.53333 0 0 1.6 0 0.1 1.6 0 0.2 1.6 0 0.3 1.6 0 0.4 1.6 0 0.5 1.6 0 0.6 1.6 0 0.7 1.6 0 0.8 1.6 0 0.9 1.6 0 1 1.6 0 1.1 1.6 0 1.2 1.6 0 1.3 1.6 0 1.4 1.6 0 1.5 1.6 0 1.6 1.6 0 1.7 1.6 0 1.8 1.6 0 1.9 1.6 0 2 1.6 0 2.1 1.6 0 2.2 1.6 0 2.3 1.6 0 2.4 1.6 0 2.5 1.6 0 2.6 1.6 0 2.7 1.6 0 2.8 1.6 0 2.9 1.6 0 3 1.6 0 0 1.66667 0 0.1 1.66667 0 0.2 1.66667 0 0.3 1.66667 0 0.4 1.66667 0 0.5 1.66667 0 0.6 1.66667 0 0.7 1.66667 0 0.8 1.66667 0 0.9 1.66667 0 1 1.66667 0 1.1 1.66667 0 1.2 1.66667 0 1.3 1.66667 0 1.4 1.66667 0 1.5 1.66667 0 1.6 1.66667 0 1.7 1.66667 0 1.8 1.66667 0 1.9 1.66667 0 2 1.66667 0 2.1 1.66667 0 2.2 1.66667 0 2.3 1.66667 0 2.4 1.66667 0 2.5 1.66667 0 2.6 1.66667 0 2.7 1.66667 0 2.8 1.66667 0 2.9 1.66667 0 3 1.66667 0 0 1.73333 0 0.1 1.73333 0 0.2 1.73333 0 0.3 1.73333 0 0.4 1.73333 0 0.5 1.73333 0 0.6 1.73333 0 0.7 1.73333 0 0.8 1.73333 0 0.9 1.73333 0 1 1.73333 0 1.1 1.73333 0 1.2 1.73333 0 1.3 1.73333 0 1.4 1.73333 0 1.5 1.73333 0 1.6 1.73333 0 1.7 1.73333 0 1.8 1.73333 0 1.9 1.73333 0 2 1.73333 0 2.1 1.73333 0 2.2 1.73333 0 2.3 1.73333 0 2.4 1.73333 0 2.5 1.73333 0 2.6 1.73333 0 2.7 1.73333 0 2.8 1.73333 0 2.9 1.73333 0 3 1.73333 0 0 1.8 0 0.1 1.8 0 0.2 1.8 0 0.3 1.8 0 0.4 1.8 0 0.5 1.8 0 0.6 1.8 0 0.7 1.8 0 0.8 1.8 0 0.9 1.8 0 1 1.8 0 1.1 1.8 0 1.2 1.8 0 1.3 1.8 0 1.4 1.8 0 1.5 1.8 0 1.6 1.8 0 1.7 1.8 0 1.8 1.8 0 1.9 1.8 0 2 1.8 0 2.1 1.8 0 2.2 1.8 0 2.3 1.8 0 2.4 1.8 0 2.5 1.8 0 2.6 1.8 0 2.7 1.8 0 2.8 1.8 0 2.9 1.8 0 3 1.8 0 0 1.86667 0 0.1 1.86667 0 0.2 1.86667 0 0.3 1.86667 0 0.4 1.86667 0 0.5 1.86667 0 0.6 1.86667 0 0.7 1.86667 0 0.8 1.86667 0 0.9 1.86667 0 1 1.86667 0 1.1 1.86667 0 1.2 1.86667 0 1.3 1.86667 0 1.4 1.86667 0 1.5 1.86667 0 1.6 1.86667 0 1.7 1.86667 0 1.8 1.86667 0 1.9 1.86667 0 2 1.86667 0 2.1 1.86667 0 2.2 1.86667 0 2.3 1.86667 0 2.4 1.86667 0 2.5 1.86667 0 2.6 1.86667 0 2.7 1.86667 0 2.8 1.86667 0 2.9 1.86667 0 3 1.86667 0 0 1.93333 0 0.1 1.93333 0 0.2 1.93333 0 0.3 1.93333 0 0.4 1.93333 0 0.5 1.93333 0 0.6 1.93333 0 0.7 1.93333 0 0.8 1.93333 0 0.9 1.93333 0 1 1.93333 0 1.1 1.93333 0 1.2 1.93333 0 1.3 1.93333 0 1.4 1.93333 0 1.5 1.93333 0 1.6 1.93333 0 1.7 1.93333 0 1.8 1.93333 0 1.9 1.93333 0 2 1.93333 0 2.1 1.93333 0 2.2 1.93333 0 2.3 1.93333 0 2.4 1.93333 0 2.5 1.93333 0 2.6 1.93333 0 2.7 1.93333 0 2.8 1.93333 0 2.9 1.93333 0 3 1.93333 0 0 2 0 0.1 2 0 0.2 2 0 0.3 2 0 0.4 2 0 0.5 2 0 0.6 2 0 0.7 2 0 0.8 2 0 0.9 2 0 1 2 0 1.1 2 0 1.2 2 0 1.3 2 0 1.4 2 0 1.5 2 0 1.6 2 0 1.7 2 0 1.8 2 0 1.9 2 0 2 2 0 2.1 2 0 2.2 2 0 2.3 2 0 2.4 2 0 2.5 2 0 2.6 2 0 2.7 2 0 2.8 2 0 2.9 2 0 3 2 0 
</DataArray>
</Points> 
</Piece> 
</StructuredGrid> 
</VTKFile> 
