<?xml version="1.0"?> 
<VTKFile type="StructuredGrid" version="0.1"> 
<StructuredGrid WholeExtent="0 100 0 100 0 0"> 
<Piece Extent="0 100 0 100 0 0"> 
<PointData Scalars="Temperature">
<DataArray type="Float32" Name="Temperature" format="ascii" NumberOfComponents="1"> 
100 100 100 100 100 100 100 100 100 100 100 100 100 100 100 100 100 100 100 100 100 100 100 100 100 100 100 100 100 100 100 100 100 100 100 100 100 100 100 100 100 100 100 100 100 100 100 100 100 100 100 100 100 100 100 100 100 100 100 100 100 100 100 100 100 100 100 100 100 100 100 100 100 100 100 100 100 100 100 100 100 100 100 100 100 100 100 100 100 100 100 100 100 100 100 100 100 100 100 100 100 98.4501 98.4499 98.4495 98.4487 98.4476 98.4462 98.4446 98.4426 98.4403 98.4377 98.4347 98.4315 98.4279 98.424 98.4197 98.4152 98.4102 98.405 98.3993 98.3933 98.387 98.3802 98.3731 98.3656 98.3577 98.3494 98.3407 98.3315 98.3219 98.3118 98.3012 98.2901 98.2785 98.2664 98.2538 98.2407 98.2269 98.2126 98.1977 98.1821 98.1659 98.149 98.1313 98.1129 98.0937 98.0736 98.0526 98.0307 98.0079 97.984 97.959 97.9353 97.9091 97.8809 97.8509 97.8192 97.786 97.7514 97.7154 97.678 97.6392 97.5988 97.5566 97.5124 97.4659 97.4168 97.3648 97.3092 97.2498 97.1859 97.1169 97.0422 96.9611 96.8728 96.7765 96.6714 96.7495 96.7131 96.5932 96.4164 96.205 95.9769 95.7458 95.5209 95.307 95.1047 94.9102 94.7153 94.5074 94.2697 93.9809 93.6156 93.1436 92.5308 91.7385 90.7237 89.4391 87.833 85.8493 83.4276 80.5032 96.9009 96.9006 96.8997 96.8982 96.8961 96.8933 96.89 96.886 96.8814 96.8761 96.8703 96.8638 96.8566 96.8488 96.8404 96.8312 96.8214 96.8109 96.7996 96.7877 96.775 96.7615 96.7473 96.7323 96.7165 96.6998 96.6824 96.6641 96.6449 96.6247 96.6036 96.5815 96.5584 96.5343 96.5091 96.4828 96.4554 96.4269 96.3971 96.366 96.3336 96.2998 96.2645 96.2278 96.1894 96.1494 96.1076 96.0641 96.0186 95.9711 95.9215 95.8726 95.8198 95.7635 95.704 95.6415 95.576 95.5077 95.4365 95.3624 95.2851 95.2044 95.12 95.0315 94.9384 94.8402 94.7363 94.6259 94.5084 94.3828 94.2482 94.1038 93.9483 93.7807 93.5997 93.4042 93.4419 93.3238 93.0908 92.7781 92.4146 92.0235 91.622 91.2212 90.8264 90.4368 90.0459 89.641 89.2036 88.709 88.1269 87.4207 86.5481 85.4608 84.1044 82.4187 80.3375 77.7886 74.6938 70.9691 66.5245 95.3535 95.353 95.3517 95.3494 95.3462 95.3421 95.3371 95.3311 95.3242 95.3164 95.3076 95.2979 95.2872 95.2755 95.2628 95.2492 95.2345 95.2187 95.2019 95.184 95.165 95.1449 95.1236 95.1012 95.0775 95.0527 95.0266 94.9992 94.9704 94.9403 94.9087 94.8757 94.8412 94.8051 94.7675 94.7282 94.6872 94.6445 94.5999 94.5535 94.505 94.4545 94.4018 94.3469 94.2896 94.2299 94.1676 94.1026 94.0348 93.9641 93.8904 93.8157 93.7362 93.6522 93.5638 93.4713 93.3744 93.2733 93.1678 93.0577 92.9426 92.8223 92.6962 92.5639 92.4248 92.2782 92.1234 91.9595 91.7857 91.6009 91.4041 91.1942 90.97 90.7303 90.4735 90.1984 90.1216 89.8957 89.5579 89.1398 88.667 88.1596 87.632 87.0927 86.5446 85.9849 85.405 84.7906 84.1217 83.3726 82.5117 81.502 80.3005 78.8585 77.1218 75.0303 72.5182 69.5139 65.9402 61.7141 56.747 93.8085 93.8079 93.8061 93.8031 93.7989 93.7934 93.7867 93.7788 93.7697 93.7593 93.7476 93.7347 93.7205 93.705 93.6881 93.67 93.6504 93.6295 93.6072 93.5834 93.5582 93.5315 93.5032 93.4734 93.442 93.409 93.3744 93.338 93.2998 93.2597 93.2178 93.174 93.1282 93.0804 93.0304 92.9783 92.924 92.8673 92.8082 92.7465 92.6822 92.6152 92.5454 92.4726 92.3967 92.3175 92.235 92.149 92.0593 91.9658 91.8684 91.7679 91.6621 91.5509 91.4345 91.3127 91.1854 91.0524 90.9135 90.7683 90.6164 90.4574 90.2907 90.1158 89.9319 89.7382 89.5341 89.3186 89.0907 88.8494 88.5937 88.3223 88.0342 87.7278 87.402 87.0552 86.8269 86.483 86.0495 85.5476 84.9943 84.4022 83.7791 83.1289 82.4508 81.7395 80.9855 80.1747 79.2887 78.3045 77.1949 75.9281 74.4679 72.7739 70.801 68.4997 65.8162 62.6923 59.0652 54.8678 50.0286 92.267 92.2662 92.264 92.2602 92.2549 92.2482 92.2398 92.23 92.2186 92.2057 92.1912 92.1751 92.1574 92.1381 92.1172 92.0946 92.0703 92.0442 92.0165 91.9869 91.9555 91.9223 91.8871 91.8501 91.8111 91.77 91.7269 91.6817 91.6342 91.5844 91.5323 91.4779 91.421 91.3616 91.2995 91.2348 91.1673 91.0968 91.0234 90.9469 90.8671 90.7839 90.6972 90.6068 90.5127 90.4145 90.3122 90.2057 90.0946 89.9788 89.8582 89.7326 89.6011 89.4635 89.3197 89.1695 89.0126 88.8487 88.6775 88.4983 88.3109 88.1146 87.9087 87.6926 87.4656 87.2269 86.9756 86.7108 86.4315 86.1367 85.8253 85.4961 85.148 84.7797 84.3898 83.9769 83.5897 83.1306 82.611 82.04 81.4237 80.7657 80.0669 79.3253 78.5365 77.6933 76.7858 75.8015 74.725 73.5383 72.221 70.7497 69.0984 67.2383 65.1382 62.7639 60.0789 57.0435 53.6157 49.7508 45.4012 90.7296 90.7287 90.726 90.7215 90.7152 90.7071 90.6972 90.6855 90.6719 90.6565 90.6392 90.62 90.5989 90.5758 90.5509 90.5239 90.4949 90.4638 90.4307 90.3954 90.358 90.3184 90.2765 90.2323 90.1857 90.1368 90.0854 90.0315 89.9749 89.9156 89.8535 89.7886 89.7208 89.65 89.5761 89.4991 89.4186 89.3348 89.2474 89.1562 89.0613 88.9623 88.8592 88.7517 88.6397 88.5231 88.4015 88.2749 88.143 88.0056 87.8624 87.7127 87.5564 87.3932 87.223 87.0453 86.8598 86.666 86.4636 86.2518 86.0302 85.7981 85.5549 85.2997 85.0318 84.7503 84.4544 84.1431 83.8153 83.4701 83.1064 82.7229 82.3185 81.892 81.4419 80.9669 80.4361 79.8737 79.2781 78.6469 77.9764 77.2621 76.4984 75.6789 74.7959 73.841 72.8046 71.6763 70.4447 69.0972 67.6203 65.9997 64.2199 62.2645 60.116 57.7561 55.1653 52.3233 49.2088 45.7993 42.0715 89.1972 89.1962 89.1931 89.1879 89.1806 89.1712 89.1597 89.1461 89.1303 89.1124 89.0924 89.0702 89.0457 89.019 88.9901 88.9588 88.9252 88.8892 88.8508 88.81 88.7666 88.7207 88.6722 88.621 88.5672 88.5105 88.451 88.3885 88.323 88.2544 88.1826 88.1075 88.0291 87.9472 87.8617 87.7726 87.6796 87.5826 87.4816 87.3763 87.2666 87.1523 87.0332 86.9091 86.7799 86.6452 86.505 86.359 86.2069 86.0484 85.8835 85.7109 85.5309 85.3432 85.1475 84.9433 84.7302 84.5077 84.2753 84.0324 83.7783 83.5123 83.2337 82.9416 82.6353 82.3138 81.9761 81.6214 81.2484 80.8562 80.4436 80.0093 79.5521 79.0707 78.5637 78.0299 77.3856 76.7384 76.0769 75.3904 74.6684 73.9005 73.0771 72.1884 71.2254 70.179 69.0407 67.8022 66.4557 64.9934 63.4082 61.693 59.8413 57.8466 55.703 53.4049 50.9469 48.324 45.5315 42.5649 39.4204 87.6706 87.6694 87.6659 87.66 87.6517 87.6411 87.628 87.6126 87.5947 87.5744 87.5517 87.5265 87.4988 87.4685 87.4357 87.4002 87.3621 87.3213 87.2778 87.2315 87.1824 87.1303 87.0754 87.0174 86.9563 86.8921 86.8247 86.754 86.6798 86.6021 86.5207 86.4358 86.347 86.2543 86.1576 86.0567 85.9515 85.8419 85.7277 85.6086 85.4846 85.3555 85.2209 85.0808 84.9349 84.783 84.6247 84.46 84.2884 84.1098 83.9238 83.7297 83.5273 83.3162 83.096 82.8664 82.6269 82.377 82.1161 81.8435 81.5587 81.2608 80.9491 80.6226 80.2806 79.922 79.5458 79.1509 78.7361 78.3004 77.8425 77.3609 76.8545 76.3218 75.7612 75.1714 74.4519 73.7412 73.0236 72.2844 71.5099 70.6876 69.806 68.8546 67.824 66.706 65.4932 64.1793 62.7593 61.2291 59.5855 57.8266 55.9515 53.9603 51.8541 49.6353 47.3071 44.8738 42.341 39.715 37.0034 86.1505 86.1492 86.1453 86.1387 86.1294 86.1176 86.103 86.0858 86.0659 86.0433 86.0179 85.9898 85.9588 85.9251 85.8885 85.849 85.8065 85.761 85.7125 85.6609 85.6061 85.5481 85.4868 85.4222 85.3542 85.2826 85.2076 85.1288 85.0462 84.9597 84.8692 84.7745 84.6757 84.5726 84.465 84.3528 84.2358 84.114 83.987 83.8547 83.717 83.5735 83.4241 83.2686 83.1066 82.9381 82.7625 82.5798 82.3896 82.1917 81.9856 81.7715 81.5478 81.3145 81.0711 80.8173 80.5527 80.2767 79.9889 79.6885 79.3749 79.0473 78.7048 78.3466 77.9716 77.5789 77.1674 76.7358 76.2829 75.8074 75.3079 74.7831 74.2313 73.651 73.0406 72.3983 71.6422 70.8894 70.1248 69.3345 68.5059 67.6273 66.6883 65.6797 64.5935 63.4227 62.1615 60.8053 59.3507 57.7955 56.1384 54.3795 52.5201 50.5625 48.5101 46.3677 44.1412 41.8374 39.4646 37.0321 34.5504 84.6377 84.6363 84.6319 84.6247 84.6145 84.6014 84.5854 84.5665 84.5446 84.5197 84.4918 84.4608 84.4268 84.3896 84.3494 84.3059 84.2592 84.2091 84.1558 84.099 84.0388 83.975 83.9076 83.8366 83.7618 83.6832 83.6007 83.5141 83.4234 83.3283 83.2289 83.125 83.0165 82.9033 82.7852 82.6621 82.5338 82.4002 82.2609 82.116 81.965 81.8078 81.6443 81.474 81.2967 81.1123 80.9203 80.7205 80.5126 80.2962 80.071 79.8381 79.5946 79.3402 79.0749 78.7983 78.5101 78.2097 77.8966 77.5703 77.2299 76.8748 76.504 76.1167 75.7117 75.288 74.8444 74.3795 73.8922 73.3808 72.844 72.28 71.6873 71.0641 70.4085 69.7186 68.9578 68.1807 67.3773 66.5385 65.6556 64.7208 63.7271 62.6679 61.5378 60.3316 59.0452 57.6752 56.2186 54.6735 53.0385 51.313 49.4971 47.5916 45.5981 43.5188 41.3568 39.1156 36.7998 34.4146 31.9657 83.1329 83.1314 83.1266 83.1188 83.1077 83.0935 83.076 83.0554 83.0316 83.0044 82.9741 82.9404 82.9033 82.8629 82.8191 82.7718 82.7209 82.6665 82.6085 82.5467 82.4812 82.4118 82.3386 82.2613 82.18 82.0946 82.005 81.9109 81.8123 81.7091 81.6011 81.4883 81.3705 81.2476 81.1194 80.9859 80.8467 80.7018 80.5508 80.3937 80.2302 80.0599 79.8828 79.6985 79.5067 79.3072 79.0996 78.8836 78.659 78.4253 78.1822 77.9315 77.6692 77.3952 77.1094 76.8116 76.5014 76.1783 75.842 75.4917 75.1267 74.7464 74.3497 73.9358 73.5036 73.0518 72.5793 72.0847 71.5666 71.0234 70.4536 69.8554 69.227 68.5666 67.8721 67.1415 66.3935 65.6034 64.7684 63.8858 62.9529 61.967 60.9253 59.8251 58.6634 57.4375 56.1444 54.7813 53.3454 51.8335 50.2428 48.5702 46.8128 44.9675 43.0312 41.0009 38.8734 36.6455 34.3142 31.8761 29.3282 81.6369 81.6352 81.6301 81.6216 81.6097 81.5943 81.5755 81.5533 81.5276 81.4983 81.4656 81.4292 81.3893 81.3457 81.2984 81.2474 81.1926 81.134 81.0714 81.0049 80.9343 80.8595 80.7806 80.6974 80.6098 80.5178 80.4213 80.3201 80.2139 80.1028 79.9867 79.8653 79.7387 79.6065 79.4688 79.3252 79.1757 79.02 78.858 78.6893 78.5137 78.3311 78.1412 77.9436 77.738 77.5243 77.3021 77.0709 76.8306 76.5807 76.3209 76.0531 75.7731 75.4808 75.1762 74.8588 74.5286 74.1849 73.8273 73.4552 73.0679 72.6646 72.2444 71.8063 71.3494 70.8723 70.374 69.8529 69.3078 68.737 68.139 67.512 66.8543 66.1639 65.4388 64.6771 63.9383 63.1365 62.2754 61.3578 60.3861 59.3619 58.2861 57.1587 55.9794 54.7468 53.4591 52.1136 50.707 49.2352 47.6935 46.0765 44.3781 42.5914 40.7089 38.7223 36.6227 34.4005 32.0453 29.546 26.891 80.1503 80.1485 80.143 80.1339 80.1212 80.1047 80.0846 80.0608 80.0333 80.002 79.967 79.9281 79.8854 79.8388 79.7882 79.7336 79.675 79.6123 79.5454 79.4742 79.3988 79.3189 79.2346 79.1457 79.0521 78.9538 78.8507 78.7425 78.6292 78.5106 78.3867 78.2572 78.1221 77.9812 77.8343 77.6813 77.522 77.3561 77.1834 77.0038 76.817 76.6226 76.4206 76.2105 75.9921 75.765 75.5291 75.2839 75.0291 74.7643 74.4892 74.2044 73.9074 73.5982 73.2764 72.9416 72.5934 72.2313 71.8548 71.4632 71.0557 70.6317 70.1901 69.7302 69.2508 68.751 68.2294 67.6851 67.1166 66.5225 65.9015 65.2521 64.5725 63.8613 63.1167 62.3369 61.5748 60.7497 59.866 58.9278 57.938 56.899 55.8122 54.6783 53.4973 52.2684 50.9897 49.6591 48.2731 46.8278 45.3184 43.7394 42.0843 40.346 38.5165 36.5872 34.5485 32.3901 30.1009 27.6691 25.0819 78.6738 78.6719 78.6661 78.6564 78.6429 78.6254 78.604 78.5787 78.5495 78.5162 78.479 78.4377 78.3923 78.3428 78.2891 78.2311 78.1688 78.1022 78.0312 77.9556 77.8755 77.7908 77.7013 77.6069 77.5077 77.4034 77.2939 77.1792 77.059 76.9334 76.802 76.6649 76.5218 76.3726 76.2171 76.0552 75.8865 75.711 75.5284 75.3385 75.141 74.9356 74.7222 74.5004 74.27 74.0306 73.782 73.5239 73.2558 72.9775 72.6886 72.3862 72.0729 71.7481 71.411 71.061 70.6974 70.3195 69.9265 69.5178 69.0924 68.6497 68.1887 67.7088 67.2089 66.6883 66.146 65.5811 64.9927 64.3799 63.7416 63.0769 62.3848 61.6642 60.9141 60.1333 59.2794 58.4029 57.4984 56.5609 55.5858 54.569 53.5065 52.3949 51.2312 50.0127 48.737 47.4023 46.0071 44.5501 43.0306 41.4482 39.8029 38.0952 36.3257 34.4956 32.6064 30.6601 28.6589 26.6055 24.5031 77.2081 77.2061 77.2 77.1897 77.1754 77.157 77.1344 77.1076 77.0767 77.0416 77.0023 76.9587 76.9107 76.8584 76.8017 76.7405 76.6748 76.6045 76.5295 76.4497 76.3652 76.2758 76.1813 76.0818 75.9771 75.8672 75.7518 75.6309 75.5043 75.3719 75.2335 75.0891 74.9385 74.7814 74.6178 74.4474 74.27 74.0855 73.8936 73.6941 73.4866 73.2711 73.0471 72.8145 72.5729 72.322 72.0615 71.7911 71.5105 71.2192 70.917 70.6017 70.2749 69.9361 69.5846 69.2198 68.8411 68.4478 68.0392 67.6145 67.173 66.714 66.2367 65.7404 65.2241 64.687 64.1284 63.5472 62.9428 62.314 61.66 60.9798 60.2725 59.5371 58.7725 57.9778 57.102 56.212 55.3003 54.3604 53.3863 52.3727 51.3151 50.2096 49.0529 47.8425 46.5765 45.2536 43.8733 42.4358 40.9419 39.3931 37.7915 36.1401 34.4422 32.7021 30.9247 29.1156 27.2808 25.4275 23.563 75.7537 75.7516 75.7451 75.7344 75.7193 75.7 75.6762 75.6481 75.6157 75.5788 75.5374 75.4916 75.4412 75.3863 75.3267 75.2625 75.1935 75.1196 75.0409 74.9572 74.8685 74.7746 74.6755 74.5711 74.4613 74.346 74.2251 74.0983 73.9656 73.8269 73.6819 73.5307 73.3729 73.2085 73.0372 72.859 72.6735 72.4806 72.28 72.0715 71.8549 71.6299 71.3962 71.1535 70.9016 70.6401 70.3687 70.087 69.7948 69.4916 69.1771 68.851 68.5125 68.1611 67.7965 67.4182 67.0256 66.6182 66.1954 65.7566 65.301 64.828 64.3369 63.8268 63.2971 62.7467 62.1748 61.5806 60.963 60.321 59.6537 58.9599 58.2385 57.4885 56.7086 55.8975 55.0417 54.1595 53.2472 52.3016 51.3194 50.2981 49.2352 48.1285 46.9765 45.7776 44.5308 43.2352 41.8905 40.4965 39.0534 37.5618 36.0226 34.4368 32.8061 31.1323 29.4175 27.6643 25.8754 24.054 22.2036 74.3112 74.309 74.3023 74.291 74.2753 74.255 74.2302 74.2008 74.1669 74.1283 74.0851 74.0371 73.9845 73.9271 73.8648 73.7976 73.7255 73.6483 73.5661 73.4787 73.386 73.288 73.1845 73.0755 72.9609 72.8405 72.7144 72.5821 72.4437 72.2991 72.1479 71.9903 71.8259 71.6546 71.4763 71.2907 71.0976 70.8969 70.6883 70.4716 70.2465 70.0127 69.7701 69.5182 69.2568 68.9856 68.7043 68.4125 68.1098 67.796 67.4706 67.1341 66.7847 66.4222 66.046 65.6559 65.2514 64.8319 64.397 63.946 63.4784 62.9934 62.4904 61.9687 61.4274 60.8658 60.2829 59.6779 59.0498 58.3976 57.7204 57.017 56.2863 55.5272 54.7386 53.9191 53.0731 52.1953 51.2841 50.3378 49.3549 48.3343 47.2746 46.1748 45.0342 43.8518 42.6271 41.3596 40.0489 38.695 37.2977 35.857 34.3733 32.8469 31.2783 29.6681 28.0171 26.3262 24.5966 22.8293 21.0258 72.8812 72.8789 72.8719 72.8602 72.8438 72.8227 72.7968 72.7663 72.7309 72.6907 72.6457 72.5958 72.541 72.4813 72.4164 72.3465 72.2715 72.1912 72.1057 72.0147 71.9183 71.8164 71.7088 71.5955 71.4764 71.3513 71.2203 71.0829 70.9392 70.789 70.6322 70.4686 70.298 70.1204 69.9355 69.7432 69.5431 69.3353 69.1193 68.8949 68.662 68.4203 68.1694 67.9091 67.6392 67.3592 67.0689 66.768 66.4561 66.1328 65.7978 65.4515 65.0923 64.7198 64.3336 63.9333 63.5186 63.0889 62.6437 62.1825 61.7047 61.2096 60.6967 60.1652 59.6143 59.0434 58.4516 57.8381 57.2019 56.5423 55.8582 55.1486 54.4125 53.6489 52.8567 52.0347 51.1925 50.3176 49.4092 48.4664 47.4885 46.4748 45.4248 44.3378 43.2135 42.0513 40.8509 39.6121 38.3346 37.0182 35.6629 34.2687 32.8354 31.3634 29.8526 28.3034 26.7161 25.0908 23.4282 21.7287 19.9928 71.4642 71.4618 71.4545 71.4424 71.4254 71.4035 71.3767 71.3449 71.3083 71.2666 71.2199 71.1682 71.1114 71.0494 70.9822 70.9098 70.832 70.7488 70.6601 70.5659 70.4661 70.3605 70.2491 70.1318 70.0085 69.879 69.7434 69.6013 69.4527 69.2973 69.1352 68.9661 68.7899 68.6065 68.4155 68.217 68.0105 67.7961 67.5733 67.3421 67.102 66.853 66.5947 66.3269 66.0492 65.7613 65.4631 65.154 64.8338 64.5022 64.1588 63.8037 63.4357 63.0544 62.6595 62.2506 61.8273 61.389 60.9352 60.4655 59.9793 59.4759 58.9548 58.4154 57.8569 57.2787 56.68 56.0601 55.4182 54.7535 54.0651 53.3523 52.614 51.8493 51.0574 50.2372 49.3961 48.5241 47.6204 46.6845 45.7157 44.7136 43.6777 42.6077 41.5031 40.3636 39.1892 37.9795 36.7345 35.4541 34.1383 32.7871 31.4007 29.9793 28.523 27.0321 25.5071 23.9481 22.3558 20.7306 19.0731 70.0607 70.0582 70.0506 70.0381 70.0205 69.9979 69.9702 69.9374 69.8995 69.8564 69.8082 69.7548 69.6961 69.632 69.5626 69.4878 69.4074 69.3215 69.23 69.1327 69.0297 68.9207 68.8058 68.6848 68.5576 68.4241 68.2842 68.1377 67.9845 67.8245 67.6575 67.4834 67.3021 67.1132 66.9168 66.7126 66.5003 66.2799 66.051 65.8134 65.567 65.3114 65.0465 64.7718 64.4872 64.1924 63.887 63.5708 63.2434 62.9045 62.5538 62.1908 61.8151 61.4263 61.0241 60.6079 60.1773 59.7319 59.2711 58.7945 58.3015 57.7915 57.264 56.7184 56.1541 55.5705 54.9669 54.3426 53.6971 53.0295 52.3392 51.6255 50.8875 50.1244 49.3357 48.5202 47.6801 46.812 45.9151 44.9887 44.032 43.0446 42.0258 40.9753 39.8926 38.7776 37.6301 36.4499 35.237 33.9915 32.7136 31.4035 30.0614 28.6878 27.2831 25.848 24.383 22.8889 21.3665 19.8166 18.2402 68.671 68.6685 68.6607 68.6478 68.6297 68.6064 68.5778 68.544 68.505 68.4607 68.411 68.356 68.2955 68.2296 68.1581 68.081 67.9984 67.9099 67.8157 67.7157 67.6096 67.4976 67.3794 67.2549 67.1242 66.987 66.8432 66.6927 66.5354 66.3711 66.1996 66.021 65.8349 65.6412 65.4398 65.2304 65.0129 64.7871 64.5527 64.3095 64.0573 63.7959 63.525 63.2443 62.9537 62.6527 62.3411 62.0186 61.6849 61.3397 60.9827 60.613 60.2308 59.8357 59.4273 59.0051 58.5686 58.1174 57.651 57.1689 56.6706 56.1556 55.6233 55.0732 54.5049 53.9177 53.311 52.6843 52.037 51.3685 50.6783 49.9656 49.2299 48.4705 47.6868 46.8781 46.0407 45.1785 44.2904 43.3755 42.433 41.462 40.462 39.4324 38.3729 37.2832 36.1631 35.0126 33.8317 32.6206 31.3797 30.1092 28.8098 27.4821 26.1268 24.7448 23.3371 21.9047 20.4489 18.9711 17.4726 67.2958 67.2931 67.2852 67.2719 67.2533 67.2293 67.2 67.1653 67.1252 67.0797 67.0287 66.9722 66.9101 66.8424 66.7691 66.69 66.6051 66.5144 66.4178 66.3151 66.2064 66.0915 65.9703 65.8427 65.7087 65.5681 65.4208 65.2667 65.1056 64.9374 64.7619 64.5791 64.3888 64.1907 63.9848 63.7708 63.5486 63.318 63.0787 62.8305 62.5733 62.3067 62.0306 61.7447 61.4487 61.1423 60.8254 60.4975 60.1584 59.8079 59.4455 59.0703 58.6827 58.2824 57.869 57.4419 57.0007 56.545 56.0742 55.588 55.0858 54.5672 54.0317 53.4788 52.908 52.3189 51.7109 51.0835 50.4362 49.7686 49.0801 48.3701 47.6383 46.884 46.1067 45.3059 44.4742 43.6203 42.7429 41.8411 40.9138 39.9602 38.9797 37.9717 36.9358 35.8717 34.7792 33.6584 32.5095 31.3325 30.1281 28.8966 27.6388 26.3555 25.0476 23.7162 22.3625 20.9878 19.5937 18.1817 16.7536 65.9352 65.9325 65.9244 65.9108 65.8917 65.8672 65.8372 65.8016 65.7606 65.714 65.6617 65.6039 65.5403 65.471 65.3959 65.315 65.2282 65.1354 65.0365 64.9315 64.8203 64.7028 64.5789 64.4485 64.3115 64.1678 64.0174 63.8599 63.6954 63.5237 63.3447 63.1582 62.964 62.7621 62.5522 62.3341 62.1078 61.8729 61.6293 61.3768 61.1151 60.8441 60.5635 60.273 59.9724 59.6615 59.34 59.0076 58.664 58.309 57.9422 57.5625 57.1708 56.7664 56.3489 55.918 55.4732 55.0141 54.5402 54.0511 53.5463 53.0255 52.4882 51.9339 51.3622 50.7727 50.1649 49.5384 48.8928 48.2275 47.5422 46.8364 46.1097 45.3616 44.5916 43.7994 42.9769 42.1338 41.2689 40.3812 39.4699 38.534 37.5731 36.5866 35.5741 34.5355 33.4706 32.3795 31.2623 30.1194 28.9512 27.7583 26.5414 25.3014 24.0391 22.7558 21.4528 20.1312 18.7928 17.4391 16.072 64.5898 64.587 64.5787 64.5648 64.5453 64.5203 64.4896 64.4533 64.4114 64.3638 64.3104 64.2513 64.1864 64.1157 64.0391 63.9564 63.8678 63.7731 63.6722 63.5651 63.4516 63.3318 63.2055 63.0725 62.9329 62.7865 62.6332 62.4729 62.3053 62.1305 61.9483 61.7585 61.561 61.3556 61.1422 60.9206 60.6906 60.452 60.2047 59.9484 59.683 59.4081 59.1237 58.8294 58.525 58.2103 57.885 57.5488 57.2015 56.8428 56.4724 56.0896 55.6946 55.2871 54.8667 54.433 53.9856 53.5241 53.0482 52.5573 52.0512 51.5294 50.9916 50.4372 49.866 49.2776 48.6715 48.0473 47.4046 46.7431 46.0623 45.3618 44.6412 43.9002 43.1382 42.355 41.5451 40.7151 39.8642 38.9915 38.0963 37.1782 36.2366 35.2713 34.2819 33.2684 32.2308 31.1691 30.0836 28.9745 27.8423 26.6876 25.5109 24.3131 23.0949 21.8574 20.6016 19.3287 18.04 16.737 15.4211 63.2597 63.2569 63.2484 63.2343 63.2144 63.1889 63.1577 63.1207 63.078 63.0295 62.9751 62.9149 62.8488 62.7768 62.6987 62.6146 62.5244 62.4279 62.3253 62.2162 62.1008 61.9789 61.8504 61.7152 61.5732 61.4244 61.2686 61.1056 60.9355 60.7579 60.5729 60.3802 60.1798 59.9714 59.755 59.5303 59.2972 59.0555 58.805 58.5456 58.2769 57.9989 57.7113 57.4138 57.1063 56.7885 56.4602 56.121 55.7708 55.4093 55.0362 54.6511 54.2539 53.8442 53.4218 52.9862 52.5372 52.0744 51.5974 51.1059 50.5995 50.0778 49.5406 48.9875 48.418 47.8319 47.2286 46.608 45.9696 45.313 44.6378 43.9437 43.2302 42.497 41.7438 40.97 40.1752 39.3601 38.5241 37.667 36.7883 35.8878 34.9653 34.0208 33.0542 32.0654 31.0547 30.022 28.9678 27.8921 26.7955 25.6783 24.541 23.3841 22.2083 21.0143 19.8029 18.5747 17.3308 16.0721 14.7997 61.9454 61.9426 61.9339 61.9195 61.8994 61.8734 61.8416 61.8041 61.7606 61.7113 61.6561 61.5949 61.5277 61.4545 61.3752 61.2898 61.1981 61.1002 60.9959 60.8852 60.768 60.6443 60.5138 60.3767 60.2326 60.0817 59.9237 59.7585 59.586 59.4061 59.2187 59.0236 58.8206 58.6097 58.3907 58.1634 57.9277 57.6834 57.4303 57.1682 56.897 56.6164 56.3262 56.0262 55.7162 55.396 55.0654 54.724 54.3716 54.008 53.633 53.2465 52.8479 52.4369 52.0134 51.5769 51.1272 50.6639 50.1869 49.6957 49.1901 48.6696 48.1341 47.5832 47.0165 46.4337 45.8345 45.2184 44.5853 43.9346 43.266 42.5793 41.8739 41.1495 40.4058 39.6423 38.8637 38.0642 37.2438 36.4027 35.5407 34.6581 33.7548 32.8311 31.887 30.9227 29.9385 28.9344 27.9107 26.8677 25.8056 24.7248 23.6255 22.508 21.3728 20.2202 19.0506 17.8645 16.6622 15.4443 14.2112 60.6471 60.6442 60.6354 60.6208 60.6004 60.574 60.5418 60.5037 60.4596 60.4096 60.3536 60.2916 60.2234 60.1492 60.0688 59.9822 59.8893 59.79 59.6843 59.5722 59.4535 59.3281 59.1961 59.0572 58.9114 58.7586 58.5987 58.4316 58.2572 58.0753 57.8858 57.6886 57.4836 57.2706 57.0494 56.82 56.5822 56.3357 56.0805 55.8163 55.543 55.2604 54.9682 54.6664 54.3546 54.0326 53.7003 53.3573 53.0036 52.6387 52.2625 51.8752 51.4759 51.0644 50.6406 50.2041 49.7546 49.2919 48.8158 48.3259 47.8219 47.3036 46.7707 46.2229 45.6598 45.0812 44.4868 43.8762 43.2492 42.6053 41.9443 41.2659 40.5696 39.8552 39.1223 38.3706 37.6068 36.8225 36.0178 35.1932 34.3487 33.4846 32.6013 31.6989 30.7777 29.8379 28.8797 27.9035 26.9094 25.8976 24.8684 23.822 22.7586 21.6784 20.5817 19.4685 18.3392 17.194 16.033 14.8564 13.6644 59.365 59.362 59.3532 59.3384 59.3177 59.291 59.2584 59.2198 59.1752 59.1246 59.0679 59.0051 58.9361 58.861 58.7797 58.692 58.598 58.4976 58.3908 58.2774 58.1574 58.0307 57.8972 57.7568 57.6096 57.4553 57.2938 57.1251 56.949 56.7654 56.5743 56.3754 56.1687 55.954 55.7311 55.5 55.2605 55.0124 54.7555 54.4897 54.2149 53.9308 53.6372 53.334 53.0209 52.6978 52.3645 52.0207 51.6663 51.3009 50.9244 50.5365 50.137 49.7258 49.3024 48.8667 48.4184 47.9573 47.483 46.9952 46.4938 45.9785 45.4489 44.9049 44.3461 43.7724 43.1834 42.5789 41.9587 41.3224 40.6699 40.0008 39.3149 38.612 37.8919 37.1542 36.4012 35.6299 34.8404 34.0327 33.2069 32.3631 31.5013 30.6216 29.7243 28.8095 27.8774 26.9282 25.9621 24.9795 23.9805 22.9656 21.9349 20.889 19.8281 18.7527 17.6631 16.5599 15.4434 14.3142 13.1729 58.0993 58.0963 58.0873 58.0724 58.0514 58.0245 57.9915 57.9525 57.9075 57.8563 57.7991 57.7356 57.666 57.5901 57.508 57.4195 57.3246 57.2232 57.1153 57.0009 56.8798 56.752 56.6173 56.4758 56.3273 56.1717 56.009 55.8389 55.6615 55.4767 55.2842 55.084 54.8759 54.6599 54.4358 54.2034 53.9626 53.7133 53.4552 53.1883 52.9124 52.6273 52.3328 52.0288 51.7151 51.3914 51.0577 50.7136 50.3591 49.9938 49.6177 49.2298 48.8309 48.4205 47.9984 47.5642 47.1178 46.6589 46.1872 45.7023 45.2042 44.6925 44.1671 43.6276 43.0738 42.5057 41.9228 41.3251 40.7124 40.0844 39.4409 38.7819 38.1072 37.4165 36.7098 35.9868 35.2438 34.4854 33.7112 32.921 32.1144 31.2913 30.4514 29.5949 28.7216 27.8316 26.9251 26.0023 25.0633 24.1085 23.1383 22.1531 21.1535 20.14 19.1132 18.0739 17.0227 15.9607 14.8885 13.8073 12.7179 56.8502 56.8472 56.8381 56.823 56.8019 56.7747 56.7415 56.7022 56.6567 56.6051 56.5474 56.4834 56.4132 56.3367 56.2539 56.1647 56.069 55.9669 55.8582 55.7429 55.6209 55.4922 55.3566 55.2141 55.0647 54.9081 54.7444 54.5733 54.3949 54.209 54.0156 53.8144 53.6054 53.3884 53.1633 52.9301 52.6884 52.4383 52.1796 51.912 51.6356 51.35 51.0551 50.7508 50.4369 50.1133 49.7796 49.4358 49.0817 48.717 48.3416 47.9551 47.5575 47.1487 46.7284 46.2963 45.8523 45.3961 44.9274 44.446 43.9518 43.4445 42.9238 42.3897 41.8419 41.2802 40.7044 40.1143 39.5098 38.8906 38.2567 37.6079 36.9439 36.2647 35.5701 34.86 34.133 33.3908 32.6333 31.8603 31.0717 30.2674 29.4475 28.6119 27.7607 26.8941 26.0122 25.1152 24.2034 23.2771 22.3365 21.3822 20.4145 19.4339 18.4409 17.4361 16.4201 15.3935 14.357 13.3115 12.2576 55.6178 55.6148 55.6057 55.5905 55.5692 55.5418 55.5084 55.4688 55.423 55.3711 55.3129 55.2485 55.1779 55.1009 55.0175 54.9278 54.8315 54.7288 54.6195 54.5035 54.3809 54.2514 54.1152 53.972 53.8217 53.6645 53.5 53.3282 53.1491 52.9625 52.7684 52.5665 52.3569 52.1393 51.9137 51.68 51.4379 51.1874 50.9284 50.6606 50.384 50.0984 49.8036 49.4996 49.186 48.8628 48.5298 48.1868 47.8336 47.4701 47.0961 46.7112 46.3156 45.909 45.491 45.0617 44.6206 44.1677 43.7027 43.2255 42.7358 42.2334 41.7182 41.19 40.6486 40.0938 39.5255 38.9436 38.3478 37.738 37.114 36.4758 35.8231 35.1559 34.4739 33.7772 33.0657 32.3395 31.5985 30.8428 30.0722 29.2868 28.4867 27.672 26.8427 25.9991 25.1413 24.2695 23.384 22.485 21.573 20.6481 19.7109 18.7617 17.8009 16.8291 15.8468 14.8544 13.8526 12.8419 11.8231 54.4023 54.3992 54.3901 54.3748 54.3534 54.3259 54.2923 54.2525 54.2065 54.1542 54.0958 54.0311 53.9601 53.8827 53.799 53.7088 53.6121 53.5089 53.3992 53.2827 53.1596 53.0297 52.8929 52.7492 52.5985 52.4407 52.2758 52.1036 51.9241 51.7371 51.5425 51.3404 51.1304 50.9126 50.6868 50.4529 50.2108 49.9603 49.7014 49.4338 49.1575 48.8723 48.578 48.2746 47.9618 47.6396 47.3077 46.966 46.6143 46.2525 45.8803 45.4977 45.1045 44.7005 44.2855 43.8594 43.4219 42.9729 42.5121 42.0395 41.5549 41.058 40.5487 40.0269 39.4924 38.9451 38.3848 37.8113 37.2247 36.6246 36.011 35.3837 34.7427 34.0878 33.419 32.736 32.0396 31.3291 30.6046 29.866 29.1134 28.3469 27.5665 26.7725 25.9648 25.1437 24.3094 23.4622 22.6021 21.7296 20.8449 19.9484 19.0403 18.1211 17.1912 16.251 15.3009 14.3414 13.3731 12.3964 11.4119 53.2037 53.2007 53.1915 53.1761 53.1547 53.1271 53.0933 53.0533 53.0072 52.9548 52.8961 52.8312 52.7599 52.6823 52.5983 52.5078 52.4109 52.3074 52.1973 52.0806 51.9571 51.8269 51.6899 51.5459 51.395 51.2369 51.0718 50.8994 50.7197 50.5326 50.3379 50.1357 49.9258 49.708 49.4824 49.2487 49.0069 48.7568 48.4983 48.2313 47.9556 47.6712 47.3779 47.0755 46.764 46.4431 46.1128 45.7728 45.4231 45.0634 44.6937 44.3136 43.9233 43.5225 43.1109 42.6885 42.2551 41.8105 41.3545 40.887 40.4079 39.917 39.4141 38.8991 38.372 37.8325 37.2805 36.716 36.1387 35.5487 34.9457 34.3298 33.7007 33.0585 32.4029 31.734 31.0524 30.3575 29.6493 28.9278 28.1931 27.4453 26.6845 25.9108 25.1244 24.3255 23.5141 22.6907 21.8553 21.0084 20.15 19.2807 18.4006 17.5102 16.6098 15.6998 14.7807 13.8528 12.9167 11.9728 11.0217 52.0222 52.0191 52.0099 51.9945 51.973 51.9453 51.9115 51.8714 51.8251 51.7726 51.7139 51.6488 51.5774 51.4996 51.4155 51.3249 51.2278 51.1241 51.0139 50.8971 50.7735 50.6432 50.506 50.362 50.211 50.053 49.8878 49.7155 49.5358 49.3489 49.1544 48.9524 48.7428 48.5255 48.3002 48.0671 47.8259 47.5765 47.3188 47.0527 46.7781 46.4949 46.2029 45.902 45.592 45.273 44.9446 44.6068 44.2594 43.9023 43.5354 43.1584 42.7714 42.3741 41.9665 41.5483 41.1193 40.6796 40.2288 39.7669 39.2937 38.8091 38.313 37.8053 37.2858 36.7545 36.2112 35.6559 35.0884 34.5087 33.9166 33.3122 32.6953 32.0658 31.4238 30.7691 30.1022 29.4227 28.7306 28.0261 27.3091 26.5799 25.8383 25.0847 24.3191 23.5418 22.7529 21.9526 21.1412 20.3189 19.486 18.6428 17.7896 16.9268 16.0548 15.1738 14.2844 13.3868 12.4817 11.5694 10.6505 50.8576 50.8546 50.8454 50.83 50.8084 50.7807 50.7468 50.7068 50.6604 50.6079 50.5491 50.484 50.4125 50.3347 50.2505 50.1599 50.0628 49.9592 49.849 49.7321 49.6086 49.4784 49.3413 49.1974 49.0466 48.8887 48.7238 48.5517 48.3725 48.1859 47.9919 47.7904 47.5814 47.3646 47.1402 46.9078 46.6675 46.4192 46.1626 45.8978 45.6246 45.3429 45.0525 44.7534 44.4455 44.1286 43.8026 43.4673 43.1227 42.7686 42.4049 42.0313 41.648 41.2547 40.8513 40.4377 40.0137 39.5791 39.1339 38.678 38.2111 37.7333 37.2443 36.7441 36.2327 35.7098 35.1755 34.6296 34.0721 33.5029 32.922 32.3292 31.7246 31.108 30.4795 29.8391 29.1867 28.5226 27.8466 27.1589 26.4594 25.7484 25.0258 24.2919 23.5467 22.7905 22.0234 21.2456 20.4574 19.659 18.8507 18.0328 17.2055 16.3693 15.5244 14.6713 13.8103 12.9419 12.0665 11.1845 10.2964 49.7102 49.7071 49.6979 49.6825 49.661 49.6333 49.5994 49.5594 49.5131 49.4606 49.4018 49.3367 49.2653 49.1876 49.1035 49.013 48.916 48.8125 48.7024 48.5858 48.4625 48.3325 48.1957 48.0521 47.9016 47.7442 47.5797 47.4081 47.2294 47.0434 46.8501 46.6494 46.4412 46.2254 46.0019 45.7707 45.5316 45.2846 45.0295 44.7662 44.4947 44.2148 43.9265 43.6295 43.3239 43.0095 42.6862 42.3538 42.0123 41.6616 41.3014 40.9317 40.5524 40.1634 39.7647 39.3559 38.9372 38.5082 38.0689 37.6192 37.159 36.6882 36.2067 35.7144 35.2112 34.6971 34.1719 33.6357 33.0884 32.5299 31.9602 31.3792 30.7869 30.1833 29.5684 28.9421 28.3043 27.6554 26.9953 26.3242 25.642 24.9489 24.2449 23.5303 22.805 22.0694 21.3235 20.5676 19.802 19.0267 18.2422 17.4486 16.6464 15.8358 15.0171 14.1907 13.3571 12.5165 11.6695 10.8164 9.95781 48.5798 48.5768 48.5676 48.5522 48.5307 48.5031 48.4693 48.4293 48.383 48.3306 48.272 48.207 48.1358 48.0582 47.9743 47.884 47.7872 47.684 47.5742 47.4579 47.3349 47.2053 47.069 46.9259 46.7759 46.6191 46.4552 46.2844 46.1064 45.9213 45.7289 45.5292 45.322 45.1074 44.8852 44.6554 44.4178 44.1723 43.9189 43.6575 43.388 43.1103 42.8242 42.5298 42.2268 41.9152 41.5949 41.2658 40.9277 40.5806 40.2243 39.8587 39.4838 39.0995 38.7057 38.3022 37.8889 37.4658 37.0328 36.5896 36.1364 35.6728 35.199 34.7148 34.2201 33.7149 33.1992 32.6728 32.1358 31.5882 31.0297 30.4606 29.8807 29.29 28.6886 28.0763 27.4531 26.8193 26.175 25.5203 24.8551 24.1796 23.4938 22.798