<?xml version="1.0"?> 
<VTKFile type="StructuredGrid" version="0.1"> 
<StructuredGrid WholeExtent="0 100 0 50 0 0"> 
<Piece Extent="0 100 0 50 0 0"> 
<PointData Vectors="Displ">
<DataArray type="Float32" Name="Displ" format="ascii" NumberOfComponents="3"> 
0 0 -2.11636e-16 0 0 -9.02056e-17 0 0 -9.02056e-17 0 0 -2.11636e-16 0 0 -2.11636e-16 0 0 -2.11636e-16 0 0 -9.02056e-17 0 0 -2.11636e-16 0 0 -2.11636e-16 0 0 -2.11636e-16 0 0 -2.25514e-16 0 0 -9.02056e-17 0 0 -9.02056e-17 0 0 -2.11636e-16 0 0 -2.11636e-16 0 0 -2.25514e-16 0 0 -2.11636e-16 0 0 -2.25514e-16 0 0 -2.25514e-16 0 0 -1.21431e-16 0 0 -2.25514e-16 0 0 -1.21431e-16 0 0 -1.21431e-16 0 0 -1.21431e-16 0 0 -2.25514e-16 0 0 -2.11636e-16 0 0 -9.02056e-17 0 0 -2.25514e-16 0 0 -2.11636e-16 0 0 -2.11636e-16 0 0 -2.25514e-16 0 0 -2.25514e-16 0 0 -2.25514e-16 0 0 -1.21431e-16 0 0 -1.45717e-16 0 0 -2.25514e-16 0 0 -1.31839e-16 0 0 -1.21431e-16 0 0 -2.25514e-16 0 0 -1.31839e-16 0 0 -9.02056e-17 0 0 -2.11636e-16 0 0 -2.25514e-16 0 0 -2.25514e-16 0 0 -2.11636e-16 0 0 -2.25514e-16 0 0 -9.02056e-17 0 0 -2.11636e-16 0 0 -2.11636e-16 0 0 -2.25514e-16 0 0 -2.11636e-16 0 0 -9.02056e-17 0 0 -9.02056e-17 0 0 -2.11636e-16 0 0 -2.25514e-16 0 0 -9.02056e-17 0 0 -2.11636e-16 0 0 -2.25514e-16 0 0 -2.25514e-16 0 0 -2.25514e-16 0 0 -2.25514e-16 0 0 -2.11636e-16 0 0 -2.11636e-16 0 0 -2.11636e-16 0 0 -2.11636e-16 0 0 -2.25514e-16 0 0 -2.25514e-16 0 0 -2.11636e-16 0 0 -2.25514e-16 0 0 -1.21431e-16 0 0 -2.25514e-16 0 0 -2.25514e-16 0 0 -2.11636e-16 0 0 -9.02056e-17 0 0 -9.02056e-17 0 0 -2.11636e-16 0 0 -9.02056e-17 0 0 -9.02056e-17 0 0 -2.11636e-16 0 0 -2.25514e-16 0 0 -9.02056e-17 0 0 -2.11636e-16 0 0 -2.25514e-16 0 0 -2.25514e-16 0 0 -2.25514e-16 0 0 -2.25514e-16 0 0 -2.11636e-16 0 0 -2.11636e-16 0 0 -2.11636e-16 0 0 -2.11636e-16 0 0 -2.25514e-16 0 0 -2.25514e-16 0 0 -2.11636e-16 0 0 -2.25514e-16 0 0 -1.21431e-16 0 0 -2.25514e-16 0 0 -2.25514e-16 0 0 -2.25514e-16 0 0 -9.02056e-17 0 0 -9.02056e-17 0 0 -2.11636e-16 0 0 -0.000181609 0 0 -0.000181609 0 0 -0.000181609 0 0 -0.000181609 0 0 -0.000181609 0 0 -0.000181609 0 0 -0.000181609 0 0 -0.000181609 0 0 -0.000181609 0 0 -0.000181609 0 0 -0.000181609 0 0 -0.000181609 0 0 -0.000181609 0 0 -0.000181609 0 0 -0.000181609 0 0 -0.000181609 0 0 -0.000181609 0 0 -0.000181609 0 0 -0.000181609 0 0 -0.000181609 0 0 -0.000181609 0 0 -0.000181609 0 0 -0.000181609 0 0 -0.000181609 0 0 -0.000181609 0 0 -0.000181609 0 0 -0.000181609 0 0 -0.000181609 0 0 -0.000181609 0 0 -0.000181609 0 0 -0.000181609 0 0 -0.000181609 0 0 -0.000181609 0 0 -0.000181609 0 0 -0.000181609 0 0 -0.000181609 0 0 -0.000181609 0 0 -0.000181609 0 0 -0.000181609 0 0 -0.000181609 0 0 -0.000181609 0 0 -0.000181609 0 0 -0.000181609 0 0 -0.000181609 0 0 -0.000181609 0 0 -0.000181609 0 0 -0.000181609 0 0 -0.000181609 0 0 -0.000181609 0 0 -0.000181609 0 0 -0.000181609 0 0 -0.000181609 0 0 -0.000181609 0 0 -0.000181609 0 0 -0.000181609 0 0 -0.000181609 0 0 -0.000181609 0 0 -0.000181609 0 0 -0.000181609 0 0 -0.000181609 0 0 -0.000181609 0 0 -0.000181609 0 0 -0.000181609 0 0 -0.000181609 0 0 -0.000181609 0 0 -0.000181609 0 0 -0.000181609 0 0 -0.000181609 0 0 -0.000181609 0 0 -0.000181609 0 0 -0.000181609 0 0 -0.000181609 0 0 -0.000181609 0 0 -0.000181609 0 0 -0.000181609 0 0 -0.000181609 0 0 -0.000181609 0 0 -0.000181609 0 0 -0.000181609 0 0 -0.000181609 0 0 -0.000181609 0 0 -0.000181609 0 0 -0.000181609 0 0 -0.000181609 0 0 -0.000181609 0 0 -0.000181609 0 0 -0.000181609 0 0 -0.000181609 0 0 -0.000181609 0 0 -0.000181609 0 0 -0.000181609 0 0 -0.000181609 0 0 -0.000181609 0 0 -0.000181609 0 0 -0.000181609 0 0 -0.000181609 0 0 -0.000181609 0 0 -0.000181609 0 0 -0.000181609 0 0 -0.000181609 0 0 -0.000181609 0 0 -0.000687829 0 0 -0.000687829 0 0 -0.000687829 0 0 -0.000687829 0 0 -0.000687829 0 0 -0.000687829 0 0 -0.000687829 0 0 -0.000687829 0 0 -0.000687829 0 0 -0.000687829 0 0 -0.000687829 0 0 -0.000687829 0 0 -0.000687829 0 0 -0.000687829 0 0 -0.000687829 0 0 -0.000687829 0 0 -0.000687829 0 0 -0.000687829 0 0 -0.000687829 0 0 -0.000687829 0 0 -0.000687829 0 0 -0.000687829 0 0 -0.000687829 0 0 -0.000687829 0 0 -0.000687829 0 0 -0.000687829 0 0 -0.000687829 0 0 -0.000687829 0 0 -0.000687829 0 0 -0.000687829 0 0 -0.000687829 0 0 -0.000687829 0 0 -0.000687829 0 0 -0.000687829 0 0 -0.000687829 0 0 -0.000687829 0 0 -0.000687829 0 0 -0.000687829 0 0 -0.000687829 0 0 -0.000687829 0 0 -0.000687829 0 0 -0.000687829 0 0 -0.000687829 0 0 -0.000687829 0 0 -0.000687829 0 0 -0.000687829 0 0 -0.000687829 0 0 -0.000687829 0 0 -0.000687829 0 0 -0.000687829 0 0 -0.000687829 0 0 -0.000687829 0 0 -0.000687829 0 0 -0.000687829 0 0 -0.000687829 0 0 -0.000687829 0 0 -0.000687829 0 0 -0.000687829 0 0 -0.000687829 0 0 -0.000687829 0 0 -0.000687829 0 0 -0.000687829 0 0 -0.000687829 0 0 -0.000687829 0 0 -0.000687829 0 0 -0.000687829 0 0 -0.000687829 0 0 -0.000687829 0 0 -0.000687829 0 0 -0.000687829 0 0 -0.000687829 0 0 -0.000687829 0 0 -0.000687829 0 0 -0.000687829 0 0 -0.000687829 0 0 -0.000687829 0 0 -0.000687829 0 0 -0.000687829 0 0 -0.000687829 0 0 -0.000687829 0 0 -0.000687829 0 0 -0.000687829 0 0 -0.000687829 0 0 -0.000687829 0 0 -0.000687829 0 0 -0.000687829 0 0 -0.000687829 0 0 -0.000687829 0 0 -0.000687829 0 0 -0.000687829 0 0 -0.000687829 0 0 -0.000687829 0 0 -0.000687829 0 0 -0.000687829 0 0 -0.000687829 0 0 -0.000687829 0 0 -0.000687829 0 0 -0.000687829 0 0 -0.000687829 0 0 -0.000687829 0 0 -0.000687829 0 0 -0.00146472 0 0 -0.00146472 0 0 -0.00146472 0 0 -0.00146472 0 0 -0.00146472 0 0 -0.00146472 0 0 -0.00146472 0 0 -0.00146472 0 0 -0.00146472 0 0 -0.00146472 0 0 -0.00146472 0 0 -0.00146472 0 0 -0.00146472 0 0 -0.00146472 0 0 -0.00146472 0 0 -0.00146472 0 0 -0.00146472 0 0 -0.00146472 0 0 -0.00146472 0 0 -0.00146472 0 0 -0.00146472 0 0 -0.00146472 0 0 -0.00146472 0 0 -0.00146472 0 0 -0.00146472 0 0 -0.00146472 0 0 -0.00146472 0 0 -0.00146472 0 0 -0.00146472 0 0 -0.00146472 0 0 -0.00146472 0 0 -0.00146472 0 0 -0.00146472 0 0 -0.00146472 0 0 -0.00146472 0 0 -0.00146472 0 0 -0.00146472 0 0 -0.00146472 0 0 -0.00146472 0 0 -0.00146472 0 0 -0.00146472 0 0 -0.00146472 0 0 -0.00146472 0 0 -0.00146472 0 0 -0.00146472 0 0 -0.00146472 0 0 -0.00146472 0 0 -0.00146472 0 0 -0.00146472 0 0 -0.00146472 0 0 -0.00146472 0 0 -0.00146472 0 0 -0.00146472 0 0 -0.00146472 0 0 -0.00146472 0 0 -0.00146472 0 0 -0.00146472 0 0 -0.00146472 0 0 -0.00146472 0 0 -0.00146472 0 0 -0.00146472 0 0 -0.00146472 0 0 -0.00146472 0 0 -0.00146472 0 0 -0.00146472 0 0 -0.00146472 0 0 -0.00146472 0 0 -0.00146472 0 0 -0.00146472 0 0 -0.00146472 0 0 -0.00146472 0 0 -0.00146472 0 0 -0.00146472 0 0 -0.00146472 0 0 -0.00146472 0 0 -0.00146472 0 0 -0.00146472 0 0 -0.00146472 0 0 -0.00146472 0 0 -0.00146472 0 0 -0.00146472 0 0 -0.00146472 0 0 -0.00146472 0 0 -0.00146472 0 0 -0.00146472 0 0 -0.00146472 0 0 -0.00146472 0 0 -0.00146472 0 0 -0.00146472 0 0 -0.00146472 0 0 -0.00146472 0 0 -0.00146472 0 0 -0.00146472 0 0 -0.00146472 0 0 -0.00146472 0 0 -0.00146472 0 0 -0.00146472 0 0 -0.00146472 0 0 -0.00146472 0 0 -0.00146472 0 0 -0.00146472 0 0 -0.00246322 0 0 -0.00246322 0 0 -0.00246322 0 0 -0.00246322 0 0 -0.00246322 0 0 -0.00246322 0 0 -0.00246322 0 0 -0.00246322 0 0 -0.00246322 0 0 -0.00246322 0 0 -0.00246322 0 0 -0.00246322 0 0 -0.00246322 0 0 -0.00246322 0 0 -0.00246322 0 0 -0.00246322 0 0 -0.00246322 0 0 -0.00246322 0 0 -0.00246322 0 0 -0.00246322 0 0 -0.00246322 0 0 -0.00246322 0 0 -0.00246322 0 0 -0.00246322 0 0 -0.00246322 0 0 -0.00246322 0 0 -0.00246322 0 0 -0.00246322 0 0 -0.00246322 0 0 -0.00246322 0 0 -0.00246322 0 0 -0.00246322 0 0 -0.00246322 0 0 -0.00246322 0 0 -0.00246322 0 0 -0.00246322 0 0 -0.00246322 0 0 -0.00246322 0 0 -0.00246322 0 0 -0.00246322 0 0 -0.00246322 0 0 -0.00246322 0 0 -0.00246322 0 0 -0.00246322 0 0 -0.00246322 0 0 -0.00246322 0 0 -0.00246322 0 0 -0.00246322 0 0 -0.00246322 0 0 -0.00246322 0 0 -0.00246322 0 0 -0.00246322 0 0 -0.00246322 0 0 -0.00246322 0 0 -0.00246322 0 0 -0.00246322 0 0 -0.00246322 0 0 -0.00246322 0 0 -0.00246322 0 0 -0.00246322 0 0 -0.00246322 0 0 -0.00246322 0 0 -0.00246322 0 0 -0.00246322 0 0 -0.00246322 0 0 -0.00246322 0 0 -0.00246322 0 0 -0.00246322 0 0 -0.00246322 0 0 -0.00246322 0 0 -0.00246322 0 0 -0.00246322 0 0 -0.00246322 0 0 -0.00246322 0 0 -0.00246322 0 0 -0.00246322 0 0 -0.00246322 0 0 -0.00246322 0 0 -0.00246322 0 0 -0.00246322 0 0 -0.00246322 0 0 -0.00246322 0 0 -0.00246322 0 0 -0.00246322 0 0 -0.00246322 0 0 -0.00246322 0 0 -0.00246322 0 0 -0.00246322 0 0 -0.00246322 0 0 -0.00246322 0 0 -0.00246322 0 0 -0.00246322 0 0 -0.00246322 0 0 -0.00246322 0 0 -0.00246322 0 0 -0.00246322 0 0 -0.00246322 0 0 -0.00246322 0 0 -0.00246322 0 0 -0.00246322 0 0 -0.00246322 0 0 -0.00363873 0 0 -0.00363873 0 0 -0.00363873 0 0 -0.00363873 0 0 -0.00363873 0 0 -0.00363873 0 0 -0.00363873 0 0 -0.00363873 0 0 -0.00363873 0 0 -0.00363873 0 0 -0.00363873 0 0 -0.00363873 0 0 -0.00363873 0 0 -0.00363873 0 0 -0.00363873 0 0 -0.00363873 0 0 -0.00363873 0 0 -0.00363873 0 0 -0.00363873 0 0 -0.00363873 0 0 -0.00363873 0 0 -0.00363873 0 0 -0.00363873 0 0 -0.00363873 0 0 -0.00363873 0 0 -0.00363873 0 0 -0.00363873 0 0 -0.00363873 0 0 -0.00363873 0 0 -0.00363873 0 0 -0.00363873 0 0 -0.00363873 0 0 -0.00363873 0 0 -0.00363873 0 0 -0.00363873 0 0 -0.00363873 0 0 -0.00363873 0 0 -0.00363873 0 0 -0.00363873 0 0 -0.00363873 0 0 -0.00363873 0 0 -0.00363873 0 0 -0.00363873 0 0 -0.00363873 0 0 -0.00363873 0 0 -0.00363873 0 0 -0.00363873 0 0 -0.00363873 0 0 -0.00363873 0 0 -0.00363873 0 0 -0.00363873 0 0 -0.00363873 0 0 -0.00363873 0 0 -0.00363873 0 0 -0.00363873 0 0 -0.00363873 0 0 -0.00363873 0 0 -0.00363873 0 0 -0.00363873 0 0 -0.00363873 0 0 -0.00363873 0 0 -0.00363873 0 0 -0.00363873 0 0 -0.00363873 0 0 -0.00363873 0 0 -0.00363873 0 0 -0.00363873 0 0 -0.00363873 0 0 -0.00363873 0 0 -0.00363873 0 0 -0.00363873 0 0 -0.00363873 0 0 -0.00363873 0 0 -0.00363873 0 0 -0.00363873 0 0 -0.00363873 0 0 -0.00363873 0 0 -0.00363873 0 0 -0.00363873 0 0 -0.00363873 0 0 -0.00363873 0 0 -0.00363873 0 0 -0.00363873 0 0 -0.00363873 0 0 -0.00363873 0 0 -0.00363873 0 0 -0.00363873 0 0 -0.00363873 0 0 -0.00363873 0 0 -0.00363873 0 0 -0.00363873 0 0 -0.00363873 0 0 -0.00363873 0 0 -0.00363873 0 0 -0.00363873 0 0 -0.00363873 0 0 -0.00363873 0 0 -0.00363873 0 0 -0.00363873 0 0 -0.00363873 0 0 -0.00363873 0 0 -0.00495068 0 0 -0.00495068 0 0 -0.00495068 0 0 -0.00495068 0 0 -0.00495068 0 0 -0.00495068 0 0 -0.00495068 0 0 -0.00495068 0 0 -0.00495068 0 0 -0.00495068 0 0 -0.00495068 0 0 -0.00495068 0 0 -0.00495068 0 0 -0.00495068 0 0 -0.00495068 0 0 -0.00495068 0 0 -0.00495068 0 0 -0.00495068 0 0 -0.00495068 0 0 -0.00495068 0 0 -0.00495068 0 0 -0.00495068 0 0 -0.00495068 0 0 -0.00495068 0 0 -0.00495068 0 0 -0.00495068 0 0 -0.00495068 0 0 -0.00495068 0 0 -0.00495068 0 0 -0.00495068 0 0 -0.00495068 0 0 -0.00495068 0 0 -0.00495068 0 0 -0.00495068 0 0 -0.00495068 0 0 -0.00495068 0 0 -0.00495068 0 0 -0.00495068 0 0 -0.00495068 0 0 -0.00495068 0 0 -0.00495068 0 0 -0.00495068 0 0 -0.00495068 0 0 -0.00495068 0 0 -0.00495068 0 0 -0.00495068 0 0 -0.00495068 0 0 -0.00495068 0 0 -0.00495068 0 0 -0.00495068 0 0 -0.00495068 0 0 -0.00495068 0 0 -0.00495068 0 0 -0.00495068 0 0 -0.00495068 0 0 -0.00495068 0 0 -0.00495068 0 0 -0.00495068 0 0 -0.00495068 0 0 -0.00495068 0 0 -0.00495068 0 0 -0.00495068 0 0 -0.00495068 0 0 -0.00495068 0 0 -0.00495068 0 0 -0.00495068 0 0 -0.00495068 0 0 -0.00495068 0 0 -0.00495068 0 0 -0.00495068 0 0 -0.00495068 0 0 -0.00495068 0 0 -0.00495068 0 0 -0.00495068 0 0 -0.00495068 0 0 -0.00495068 0 0 -0.00495068 0 0 -0.00495068 0 0 -0.00495068 0 0 -0.00495068 0 0 -0.00495068 0 0 -0.00495068 0 0 -0.00495068 0 0 -0.00495068 0 0 -0.00495068 0 0 -0.00495068 0 0 -0.00495068 0 0 -0.00495068 0 0 -0.00495068 0 0 -0.00495068 0 0 -0.00495068 0 0 -0.00495068 0 0 -0.00495068 0 0 -0.00495068 0 0 -0.00495068 0 0 -0.00495068 0 0 -0.00495068 0 0 -0.00495068 0 0 -0.00495068 0 0 -0.00495068 0 0 -0.00495068 0 0 -0.00636224 0 0 -0.00636224 0 0 -0.00636224 0 0 -0.00636224 0 0 -0.00636224 0 0 -0.00636224 0 0 -0.00636224 0 0 -0.00636224 0 0 -0.00636224 0 0 -0.00636224 0 0 -0.00636224 0 0 -0.00636224 0 0 -0.00636224 0 0 -0.00636224 0 0 -0.00636224 0 0 -0.00636224 0 0 -0.00636224 0 0 -0.00636224 0 0 -0.00636224 0 0 -0.00636224 0 0 -0.00636224 0 0 -0.00636224 0 0 -0.00636224 0 0 -0.00636224 0 0 -0.00636224 0 0 -0.00636224 0 0 -0.00636224 0 0 -0.00636224 0 0 -0.00636224 0 0 -0.00636224 0 0 -0.00636224 0 0 -0.00636224 0 0 -0.00636224 0 0 -0.00636224 0 0 -0.00636224 0 0 -0.00636224 0 0 -0.00636224 0 0 -0.00636224 0 0 -0.00636224 0 0 -0.00636224 0 0 -0.00636224 0 0 -0.00636224 0 0 -0.00636224 0 0 -0.00636224 0 0 -0.00636224 0 0 -0.00636224 0 0 -0.00636224 0 0 -0.00636224 0 0 -0.00636224 0 0 -0.00636224 0 0 -0.00636224 0 0 -0.00636224 0 0 -0.00636224 0 0 -0.00636224 0 0 -0.00636224 0 0 -0.00636224 0 0 -0.00636224 0 0 -0.00636224 0 0 -0.00636224 0 0 -0.00636224 0 0 -0.00636224 0 0 -0.00636224 0 0 -0.00636224 0 0 -0.00636224 0 0 -0.00636224 0 0 -0.00636224 0 0 -0.00636224 0 0 -0.00636224 0 0 -0.00636224 0 0 -0.00636224 0 0 -0.00636224 0 0 -0.00636224 0 0 -0.00636224 0 0 -0.00636224 0 0 -0.00636224 0 0 -0.00636224 0 0 -0.00636224 0 0 -0.00636224 0 0 -0.00636224 0 0 -0.00636224 0 0 -0.00636224 0 0 -0.00636224 0 0 -0.00636224 0 0 -0.00636224 0 0 -0.00636224 0 0 -0.00636224 0 0 -0.00636224 0 0 -0.00636224 0 0 -0.00636224 0 0 -0.00636224 0 0 -0.00636224 0 0 -0.00636224 0 0 -0.00636224 0 0 -0.00636224 0 0 -0.00636224 0 0 -0.00636224 0 0 -0.00636224 0 0 -0.00636224 0 0 -0.00636224 0 0 -0.00636224 0 0 -0.00636224 0 0 -0.00783999 0 0 -0.00783999 0 0 -0.00783999 0 0 -0.00783999 0 0 -0.00783999 0 0 -0.00783999 0 0 -0.00783999 0 0 -0.00783999 0 0 -0.00783999 0 0 -0.00783999 0 0 -0.00783999 0 0 -0.00783999 0 0 -0.00783999 0 0 -0.00783999 0 0 -0.00783999 0 0 -0.00783999 0 0 -0.00783999 0 0 -0.00783999 0 0 -0.00783999 0 0 -0.00783999 0 0 -0.00783999 0 0 -0.00783999 0 0 -0.00783999 0 0 -0.00783999 0 0 -0.00783999 0 0 -0.00783999 0 0 -0.00783999 0 0 -0.00783999 0 0 -0.00783999 0 0 -0.00783999 0 0 -0.00783999 0 0 -0.00783999 0 0 -0.00783999 0 0 -0.00783999 0 0 -0.00783999 0 0 -0.00783999 0 0 -0.00783999 0 0 -0.00783999 0 0 -0.00783999 0 0 -0.00783999 0 0 -0.00783999 0 0 -0.00783999 0 0 -0.00783999 0 0 -0.00783999 0 0 -0.00783999 0 0 -0.00783999 0 0 -0.00783999 0 0 -0.00783999 0 0 -0.00783999 0 0 -0.00783999 0 0 -0.00783999 0 0 -0.00783999 0 0 -0.00783999 0 0 -0.00783999 0 0 -0.00783999 0 0 -0.00783999 0 0 -0.00783999 0 0 -0.00783999 0 0 -0.00783999 0 0 -0.00783999 0 0 -0.00783999 0 0 -0.00783999 0 0 -0.00783999 0 0 -0.00783999 0 0 -0.00783999 0 0 -0.00783999 0 0 -0.00783999 0 0 -0.00783999 0 0 -0.00783999 0 0 -0.00783999 0 0 -0.00783999 0 0 -0.00783999 0 0 -0.00783999 0 0 -0.00783999 0 0 -0.00783999 0 0 -0.00783999 0 0 -0.00783999 0 0 -0.00783999 0 0 -0.00783999 0 0 -0.00783999 0 0 -0.00783999 0 0 -0.00783999 0 0 -0.00783999 0 0 -0.00783999 0 0 -0.00783999 0 0 -0.00783999 0 0 -0.00783999 0 0 -0.00783999 0 0 -0.00783999 0 0 -0.00783999 0 0 -0.00783999 0 0 -0.00783999 0 0 -0.00783999 0 0 -0.00783999 0 0 -0.00783999 0 0 -0.00783999 0 0 -0.00783999 0 0 -0.00783999 0 0 -0.00783999 0 0 -0.00783999 0 0 -0.00783999 0 0 -0.00935368 0 0 -0.00935368 0 0 -0.00935368 0 0 -0.00935368 0 0 -0.00935368 0 0 -0.00935368 0 0 -0.00935368 0 0 -0.00935368 0 0 -0.00935368 0 0 -0.00935368 0 0 -0.00935368 0 0 -0.00935368 0 0 -0.00935368 0 0 -0.00935368 0 0 -0.00935368 0 0 -0.00935368 0 0 -0.00935368 0 0 -0.00935368 0 0 -0.00935368 0 0 -0.00935368 0 0 -0.00935368 0 0 -0.00935368 0 0 -0.00935368 0 0 -0.00935368 0 0 -0.00935368 0 0 -0.00935368 0 0 -0.00935368 0 0 -0.00935368 0 0 -0.00935368 0 0 -0.00935368 0 0 -0.00935368 0 0 -0.00935368 0 0 -0.00935368 0 0 -0.00935368 0 0 -0.00935368 0 0 -0.00935368 0 0 -0.00935368 0 0 -0.00935368 0 0 -0.00935368 0 0 -0.00935368 0 0 -0.00935368 0 0 -0.00935368 0 0 -0.00935368 0 0 -0.00935368 0 0 -0.00935368 0 0 -0.00935368 0 0 -0.00935368 0 0 -0.00935368 0 0 -0.00935368 0 0 -0.00935368 0 0 -0.00935368 0 0 -0.00935368 0 0 -0.00935368 0 0 -0.00935368 0 0 -0.00935368 0 0 -0.00935368 0 0 -0.00935368 0 0 -0.00935368 0 0 -0.00935368 0 0 -0.00935368 0 0 -0.00935368 0 0 -0.00935368 0 0 -0.00935368 0 0 -0.00935368 0 0 -0.00935368 0 0 -0.00935368 0 0 -0.00935368 0 0 -0.00935368 0 0 -0.00935368 0 0 -0.00935368 0 0 -0.00935368 0 0 -0.00935368 0 0 -0.00935368 0 0 -0.00935368 0 0 -0.00935368 0 0 -0.00935368 0 0 -0.00935368 0 0 -0.00935368 0 0 -0.00935368 0 0 -0.00935368 0 0 -0.00935368 0 0 -0.00935368 0 0 -0.00935368 0 0 -0.00935368 0 0 -0.00935368 0 0 -0.00935368 0 0 -0.00935368 0 0 -0.00935368 0 0 -0.00935368 0 0 -0.00935368 0 0 -0.00935368 0 0 -0.00935368 0 0 -0.00935368 0 0 -0.00935368 0 0 -0.00935368 0 0 -0.00935368 0 0 -0.00935368 0 0 -0.00935368 0 0 -0.00935368 0 0 -0.00935368 0 0 -0.00935368 0 0 -0.010876 0 0 -0.010876 0 0 -0.010876 0 0 -0.010876 0 0 -0.010876 0 0 -0.010876 0 0 -0.010876 0 0 -0.010876 0 0 -0.010876 0 0 -0.010876 0 0 -0.010876 0 0 -0.010876 0 0 -0.010876 0 0 -0.010876 0 0 -0.010876 0 0 -0.010876 0 0 -0.010876 0 0 -0.010876 0 0 -0.010876 0 0 -0.010876 0 0 -0.010876 0 0 -0.010876 0 0 -0.010876 0 0 -0.010876 0 0 -0.010876 0 0 -0.010876 0 0 -0.010876 0 0 -0.010876 0 0 -0.010876 0 0 -0.010876 0 0 -0.010876 0 0 -0.010876 0 0 -0.010876 0 0 -0.010876 0 0 -0.010876 0 0 -0.010876 0 0 -0.010876 0 0 -0.010876 0 0 -0.010876 0 0 -0.010876 0 0 -0.010876 0 0 -0.010876 0 0 -0.010876 0 0 -0.010876 0 0 -0.010876 0 0 -0.010876 0 0 -0.010876 0 0 -0.010876 0 0 -0.010876 0 0 -0.010876 0 0 -0.010876 0 0 -0.010876 0 0 -0.010876 0 0 -0.010876 0 0 -0.010876 0 0 -0.010876 0 0 -0.010876 0 0 -0.010876 0 0 -0.010876 0 0 -0.010876 0 0 -0.010876 0 0 -0.010876 0 0 -0.010876 0 0 -0.010876 0 0 -0.010876 0 0 -0.010876 0 0 -0.010876 0 0 -0.010876 0 0 -0.010876 0 0 -0.010876 0 0 -0.010876 0 0 -0.010876 0 0 -0.010876 0 0 -0.010876 0 0 -0.010876 0 0 -0.010876 0 0 -0.010876 0 0 -0.010876 0 0 -0.010876 0 0 -0.010876 0 0 -0.010876 0 0 -0.010876 0 0 -0.010876 0 0 -0.010876 0 0 -0.010876 0 0 -0.010876 0 0 -0.010876 0 0 -0.010876 0 0 -0.010876 0 0 -0.010876 0 0 -0.010876 0 0 -0.010876 0 0 -0.010876 0 0 -0.010876 0 0 -0.010876 0 0 -0.010876 0 0 -0.010876 0 0 -0.010876 0 0 -0.010876 0 0 -0.010876 0 0 -0.010876 0 0 -0.0123823 0 0 -0.0123823 0 0 -0.0123823 0 0 -0.0123823 0 0 -0.0123823 0 0 -0.0123823 0 0 -0.0123823 0 0 -0.0123823 0 0 -0.0123823 0 0 -0.0123823 0 0 -0.0123823 0 0 -0.0123823 0 0 -0.0123823 0 0 -0.0123823 0 0 -0.0123823 0 0 -0.0123823 0 0 -0.0123823 0 0 -0.0123823 0 0 -0.0123823 0 0 -0.0123823 0 0 -0.0123823 0 0 -0.0123823 0 0 -0.0123823 0 0 -0.0123823 0 0 -0.0123823 0 0 -0.0123823 0 0 -0.0123823 0 0 -0.0123823 0 0 -0.0123823 0 0 -0.0123823 0 0 -0.0123823 0 0 -0.0123823 0 0 -0.0123823 0 0 -0.0123823 0 0 -0.0123823 0 0 -0.0123823 0 0 -0.0123823 0 0 -0.0123823 0 0 -0.0123823 0 0 -0.0123823 0 0 -0.0123823 0 0 -0.0123823 0 0 -0.0123823 0 0 -0.0123823 0 0 -0.0123823 0 0 -0.0123823 0 0 -0.0123823 0 0 -0.0123823 0 0 -0.0123823 0 0 -0.0123823 0 0 -0.0123823 0 0 -0.0123823 0 0 -0.0123823 0 0 -0.0123823 0 0 -0.0123823 0 0 -0.0123823 0 0 -0.0123823 0 0 -0.0123823 0 0 -0.0123823 0 0 -0.0123823 0 0 -0.0123823 0 0 -0.0123823 0 0 -0.0123823 0 0 -0.0123823 0 0 -0.0123823 0 0 -0.0123823 0 0 -0.0123823 0 0 -0.0123823 0 0 -0.0123823 0 0 -0.0123823 0 0 -0.0123823 0 0 -0.0123823 0 0 -0.0123823 0 0 -0.0123823 0 0 -0.0123823 0 0 -0.0123823 0 0 -0.0123823 0 0 -0.0123823 0 0 -0.0123823 0 0 -0.0123823 0 0 -0.0123823 0 0 -0.0123823 0 0 -0.0123823 0 0 -0.0123823 0 0 -0.0123823 0 0 -0.0123823 0 0 -0.0123823 0 0 -0.0123823 0 0 -0.0123823 0 0 -0.0123823 0 0 -0.0123823 0 0 -0.0123823 0 0 -0.0123823 0 0 -0.0123823 0 0 -0.0123823 0 0 -0.0123823 0 0 -0.0123823 0 0 -0.0123823 0 0 -0.0123823 0 0 -0.0123823 0 0 -0.0123823 0 0 -0.0138507 0 0 -0.0138507 0 0 -0.0138507 0 0 -0.0138507 0 0 -0.0138507 0 0 -0.0138507 0 0 -0.0138507 0 0 -0.0138507 0 0 -0.0138507 0 0 -0.0138507 0 0 -0.0138507 0 0 -0.0138507 0 0 -0.0138507 0 0 -0.0138507 0 0 -0.0138507 0 0 -0.0138507 0 0 -0.0138507 0 0 -0.0138507 0 0 -0.0138507 0 0 -0.0138507 0 0 -0.0138507 0 0 -0.0138507 0 0 -0.0138507 0 0 -0.0138507 0 0 -0.0138507 0 0 -0.0138507 0 0 -0.0138507 0 0 -0.0138507 0 0 -0.0138507 0 0 -0.0138507 0 0 -0.0138507 0 0 -0.0138507 0 0 -0.0138507 0 0 -0.0138507 0 0 -0.0138507 0 0 -0.0138507 0 0 -0.0138507 0 0 -0.0138507 0 0 -0.0138507 0 0 -0.0138507 0 0 -0.0138507 0 0 -0.0138507 0 0 -0.0138507 0 0 -0.0138507 0 0 -0.0138507 0 0 -0.0138507 0 0 -0.0138507 0 0 -0.0138507 0 0 -0.0138507 0 0 -0.0138507 0 0 -0.0138507 0 0 -0.0138507 0 0 -0.0138507 0 0 -0.0138507 0 0 -0.0138507 0 0 -0.0138507 0 0 -0.0138507 0 0 -0.0138507 0 0 -0.0138507 0 0 -0.0138507 0 0 -0.0138507 0 0 -0.0138507 0 0 -0.0138507 0 0 -0.0138507 0 0 -0.0138507 0 0 -0.0138507 0 0 -0.0138507 0 0 -0.0138507 0 0 -0.0138507 0 0 -0.0138507 0 0 -0.0138507 0 0 -0.0138507 0 0 -0.0138507 0 0 -0.0138507 0 0 -0.0138507 0 0 -0.0138507 0 0 -0.0138507 0 0 -0.0138507 0 0 -0.0138507 0 0 -0.0138507 0 0 -0.0138507 0 0 -0.0138507 0 0 -0.0138507 0 0 -0.0138507 0 0 -0.0138507 0 0 -0.0138507 0 0 -0.0138507 0 0 -0.0138507 0 0 -0.0138507 0 0 -0.0138507 0 0 -0.0138507 0 0 -0.0138507 0 0 -0.0138507 0 0 -0.0138507 0 0 -0.0138507 0 0 -0.0138507 0 0 -0.0138507 0 0 -0.0138507 0 0 -0.0138507 0 0 -0.0138507 0 0 -0.0138507 0 0 -0.0152614 0 0 -0.0152614 0 0 -0.0152614 0 0 -0.0152614 0 0 -0.0152614 0 0 -0.0152614 0 0 -0.0152614 0 0 -0.0152614 0 0 -0.0152614 0 0 -0.0152614 0 0 -0.0152614 0 0 -0.0152614 0 0 -0.0152614 0 0 -0.0152614 0 0 -0.0152614 0 0 -0.0152614 0 0 -0.0152614 0 0 -0.0152614 0 0 -0.0152614 0 0 -0.0152614 0 0 -0.0152614 0 0 -0.0152614 0 0 -0.0152614 0 0 -0.0152614 0 0 -0.0152614 0 0 -0.0152614 0 0 -0.0152614 0 0 -0.0152614 0 0 -0.0152614 0 0 -0.0152614 0 0 -0.0152614 0 0 -0.0152614 0 0 -0.0152614 0 0 -0.0152614 0 0 -0.0152614 0 0 -0.0152614 0 0 -0.0152614 0 0 -0.0152614 0 0 -0.0152614 0 0 -0.0152614 0 0 -0.0152614 0 0 -0.0152614 0 0 -0.0152614 0 0 -0.0152614 0 0 -0.0152614 0 0 -0.0152614 0 0 -0.0152614 0 0 -0.0152614 0 0 -0.0152614 0 0 -0.0152614 0 0 -0.0152614 0 0 -0.0152614 0 0 -0.0152614 0 0 -0.0152614 0 0 -0.0152614 0 0 -0.0152614 0 0 -0.0152614 0 0 -0.0152614 0 0 -0.0152614 0 0 -0.0152614 0 0 -0.0152614 0 0 -0.0152614 0 0 -0.0152614 0 0 -0.0152614 0 0 -0.0152614 0 0 -0.0152614 0 0 -0.0152614 0 0 -0.0152614 0 0 -0.0152614 0 0 -0.0152614 0 0 -0.0152614 0 0 -0.0152614 0 0 -0.0152614 0 0 -0.0152614 0 0 -0.0152614 0 0 -0.0152614 0 0 -0.0152614 0 0 -0.0152614 0 0 -0.0152614 0 0 -0.0152614 0 0 -0.0152614 0 0 -0.0152614 0 0 -0.0152614 0 0 -0.0152614 0 0 -0.0152614 0 0 -0.0152614 0 0 -0.0152614 0 0 -0.0152614 0 0 -0.0152614 0 0 -0.0152614 0 0 -0.0152614 0 0 -0.0152614 0 0 -0.0152614 0 0 -0.0152614 0 0 -0.0152614 0 0 -0.0152614 0 0 -0.0152614 0 0 -0.0152614 0 0 -0.0152614 0 0 -0.0152614 0 0 -0.0152614 0 0 -0.0165972 0 0 -0.0165972 0 0 -0.0165972 0 0 -0.0165972 0 0 -0.0165972 0 0 -0.0165972 0 0 -0.0165972 0 0 -0.0165972 0 0 -0.0165972 0 0 -0.0165972 0 0 -0.0165972 0 0 -0.0165972 0 0 -0.0165972 0 0 -0.0165972 0 0 -0.0165972 0 0 -0.0165972 0 0 -0.0165972 0 0 -0.0165972 0 0 -0.0165972 0 0 -0.0165972 0 0 -0.0165972 0 0 -0.0165972 0 0 -0.0165972 0 0 -0.0165972 0 0 -0.0165972 0 0 -0.0165972 0 0 -0.0165972 0 0 -0.0165972 0 0 -0.0165972 0 0 -0.0165972 0 0 -0.0165972 0 0 -0.0165972 0 0 -0.0165972 0 0 -0.0165972 0 0 -0.0165972 0 0 -0.0165972 0 0 -0.0165972 0 0 -0.0165972 0 0 -0.0165972 0 0 -0.0165972 0 0 -0.0165972 0 0 -0.0165972 0 0 -0.0165972 0 0 -0.0165972 0 0 -0.0165972 0 0 -0.0165972 0 0 -0.0165972 0 0 -0.0165972 0 0 -0.0165972 0 0 -0.0165972 0 0 -0.0165972 0 0 -0.0165972 0 0 -0.0165972 0 0 -0.0165972 0 0 -0.0165972 0 0 -0.0165972 0 0 -0.0165972 0 0 -0.0165972 0 0 -0.0165972 0 0 -0.0165972 0 0 -0.0165972 0 0 -0.0165972 0 0 -0.0165972 0 0 -0.0165972 0 0 -0.0165972 0 0 -0.0165972 0 0 -0.0165972 0 0 -0.0165972 0 0 -0.0165972 0 0 -0.0165972 0 0 -0.0165972 0 0 -0.0165972 0 0 -0.0165972 0 0 -0.0165972 0 0 -0.0165972 0 0 -0.0165972 0 0 -0.0165972 0 0 -0.0165972 0 0 -0.0165972 0 0 -0.0165972 0 0 -0.0165972 0 0 -0.0165972 0 0 -0.0165972 0 0 -0.0165972 0 0 -0.0165972 0 0 -0.0165972 0 0 -0.0165972 0 0 -0.0165972 0 0 -0.0165972 0 0 -0.0165972 0 0 -0.0165972 0 0 -0.0165972 0 0 -0.0165972 0 0 -0.0165972 0 0 -0.0165972 0 0 -0.0165972 0 0 -0.0165972 0 0 -0.0165972 0 0 -0.0165972 0 0 -0.0165972 0 0 -0.0165972 0 0 -0.0178427 0 0 -0.0178427 0 0 -0.0178427 0 0 -0.0178427 0 0 -0.0178427 0 0 -0.0178427 0 0 -0.0178427 0 0 -0.0178427 0 0 -0.0178427 0 0 -0.0178427 0 0 -0.0178427 0 0 -0.0178427 0 0 -0.0178427 0 0 -0.0178427 0 0 -0.0178427 0 0 -0.0178427 0 0 -0.0178427 0 0 -0.0178427 0 0 -0.0178427 0 0 -0.0178427 0 0 -0.0178427 0 0 -0.0178427 0 0 -0.0178427 0 0 -0.0178427 0 0 -0.0178427 0 0 -0.0178427 0 0 -0.0178427 0 0 -0.0178427 0 0 -0.0178427 0 0 -0.0178427 0 0 -0.0178427 0 0 -0.0178427 0 0 -0.0178427 0 0 -0.0178427 0 0 -0.0178427 0 0 -0.0178427 0 0 -0.0178427 0 0 -0.0178427 0 0 -0.0178427 0 0 -0.0178427 0 0 -0.0178427 0 0 -0.0178427 0 0 -0.0178427 0 0 -0.0178427 0 0 -0.0178427 0 0 -0.0178427 0 0 -0.0178427 0 0 -0.0178427 0 0 -0.0178427 0 0 -0.0178427 0 0 -0.0178427 0 0 -0.0178427 0 0 -0.0178427 0 0 -0.0178427 0 0 -0.0178427 0 0 -0.0178427 0 0 -0.0178427 0 0 -0.0178427 0 0 -0.0178427 0 0 -0.0178427 0 0 -0.0178427 0 0 -0.0178427 0 0 -0.0178427 0 0 -0.0178427 0 0 -0.0178427 0 0 -0.0178427 0 0 -0.0178427 0 0 -0.0178427 0 0 -0.0178427 0 0 -0.0178427 0 0 -0.0178427 0 0 -0.0178427 0 0 -0.0178427 0 0 -0.0178427 0 0 -0.0178427 0 0 -0.0178427 0 0 -0.0178427 0 0 -0.0178427 0 0 -0.0178427 0 0 -0.0178427 0 0 -0.0178427 0 0 -0.0178427 0 0 -0.0178427 0 0 -0.0178427 0 0 -0.0178427 0 0 -0.0178427 0 0 -0.0178427 0 0 -0.0178427 0 0 -0.0178427 0 0 -0.0178427 0 0 -0.0178427 0 0 -0.0178427 0 0 -0.0178427 0 0 -0.0178427 0 0 -0.0178427 0 0 -0.0178427 0 0 -0.0178427 0 0 -0.0178427 0 0 -0.0178427 0 0 -0.0178427 0 0 -0.0178427 0 0 -0.0189846 0 0 -0.0189846 0 0 -0.0189846 0 0 -0.0189846 0 0 -0.0189846 0 0 -0.0189846 0 0 -0.0189846 0 0 -0.0189846 0 0 -0.0189846 0 0 -0.0189846 0 0 -0.0189846 0 0 -0.0189846 0 0 -0.0189846 0 0 -0.0189846 0 0 -0.0189846 0 0 -0.0189846 0 0 -0.0189846 0 0 -0.0189846 0 0 -0.0189846 0 0 -0.0189846 0 0 -0.0189846 0 0 -0.0189846 0 0 -0.0189846 0 0 -0.0189846 0 0 -0.0189846 0 0 -0.0189846 0 0 -0.0189846 0 0 -0.0189846 0 0 -0.0189846 0 0 -0.0189846 0 0 -0.0189846 0 0 -0.0189846 0 0 -0.0189846 0 0 -0.0189846 0 0 -0.0189846 0 0 -0.0189846 0 0 -0.0189846 0 0 -0.0189846 0 0 -0.0189846 0 0 -0.0189846 0 0 -0.0189846 0 0 -0.0189846 0 0 -0.0189846 0 0 -0.0189846 0 0 -0.0189846 0 0 -0.0189846 0 0 -0.0189846 0 0 -0.0189846 0 0 -0.0189846 0 0 -0.0189846 0 0 -0.0189846 0 0 -0.0189846 0 0 -0.0189846 0 0 -0.0189846 0 0 -0.0189846 0 0 -0.0189846 0 0 -0.0189846 0 0 -0.0189846 0 0 -0.0189846 0 0 -0.0189846 0 0 -0.0189846 0 0 -0.0189846 0 0 -0.0189846 0 0 -0.0189846 0 0 -0.0189846 0 0 -0.0189846 0 0 -0.0189846 0 0 -0.0189846 0 0 -0.0189846 0 0 -0.0189846 0 0 -0.0189846 0 0 -0.0189846 0 0 -0.0189846 0 0 -0.0189846 0 0 -0.0189846 0 0 -0.0189846 0 0 -0.0189846 0 0 -0.0189846 0 0 -0.0189846 0 0 -0.0189846 0 0 -0.0189846 0 0 -0.0189846 0 0 -0.0189846 0 0 -0.0189846 0 0 -0.0189846 0 0 -0.0189846 0 0 -0.0189846 0 0 -0.0189846 0 0 -0.0189846 0 0 -0.0189846 0 0 -0.0189846 0 0 -0.0189846 0 0 -0.0189846 0 0 -0.0189846 0 0 -0.0189846 0 0 -0.0189846 0 0 -0.0189846 0 0 -0.0189846 0 0 -0.0189846 0 0 -0.0189846 0 0 -0.0189846 0 0 -0.0200117 0 0 -0.0200117 0 0 -0.0200117 0 0 -0.0200117 0 0 -0.0200117 0 0 -0.0200117 0 0 -0.0200117 0 0 -0.0200117 0 0 -0.0200117 0 0 -0.0200117 0 0 -0.0200117 0 0 -0.0200117 0 0 -0.0200117 0 0 -0.0200117 0 0 -0.0200117 0 0 -0.0200117 0 0 -0.0200117 0 0 -0.0200117 0 0 -0.0200117 0 0 -0.0200117 0 0 -0.0200117 0 0 -0.0200117 0 0 -0.0200117 0 0 -0.0200117 0 0 -0.0200117 0 0 -0.0200117 0 0 -0.0200117 0 0 -0.0200117 0 0 -0.0200117 0 0 -0.0200117 0 0 -0.0200117 0 0 -0.0200117 0 0 -0.0200117 0 0 -0.0200117 0 0 -0.0200117 0 0 -0.0200117 0 0 -0.0200117 0 0 -0.0200117 0 0 -0.0200117 0 0 -0.0200117 0 0 -0.0200117 0 0 -0.0200117 0 0 -0.0200117 0 0 -0.0200117 0 0 -0.0200117 0 0 -0.0200117 0 0 -0.0200117 0 0 -0.0200117 0 0 -0.0200117 0 0 -0.0200117 0 0 -0.0200117 0 0 -0.0200117 0 0 -0.0200117 0 0 -0.0200117 0 0 -0.0200117 0 0 -0.0200117 0 0 -0.0200117 0 0 -0.0200117 0 0 -0.0200117 0 0 -0.0200117 0 0 -0.0200117 0 0 -0.0200117 0 0 -0.0200117 0 0 -0.0200117 0 0 -0.0200117 0 0 -0.0200117 0 0 -0.0200117 0 0 -0.0200117 0 0 -0.0200117 0 0 -0.0200117 0 0 -0.0200117 0 0 -0.0200117 0 0 -0.0200117 0 0 -0.0200117 0 0 -0.0200117 0 0 -0.0200117 0 0 -0.0200117 0 0 -0.0200117 0 0 -0.0200117 0 0 -0.0200117 0 0 -0.0200117 0 0 -0.0200117 0 0 -0.0200117 0 0 -0.0200117 0 0 -0.0200117 0 0 -0.0200117 0 0 -0.0200117 0 0 -0.0200117 0 0 -0.0200117 0 0 -0.0200117 0 0 -0.0200117 0 0 -0.0200117 0 0 -0.0200117 0 0 -0.0200117 0 0 -0.0200117 0 0 -0.0200117 0 0 -0.0200117 0 0 -0.0200117 0 0 -0.0200117 0 0 -0.0200117 0 0 -0.0200117 0 0 -0.0209144 0 0 -0.0209144 0 0 -0.0209144 0 0 -0.0209144 0 0 -0.0209144 0 0 -0.0209144 0 0 -0.0209144 0 0 -0.0209144 0 0 -0.0209144 0 0 -0.0209144 0 0 -0.0209144 0 0 -0.0209144 0 0 -0.0209144 0 0 -0.0209144 0 0 -0.0209144 0 0 -0.0209144 0 0 -0.0209144 0 0 -0.0209144 0 0 -0.0209144 0 0 -0.0209144 0 0 -0.0209144 0 0 -0.0209144 0 0 -0.0209144 0 0 -0.0209144 0 0 -0.0209144 0 0 -0.0209144 0 0 -0.0209144 0 0 -0.0209144 0 0 -0.0209144 0 0 -0.0209144 0 0 -0.0209144 0 0 -0.0209144 0 0 -0.0209144 0 0 -0.0209144 0 0 -0.0209144 0 0 -0.0209144 0 0 -0.0209144 0 0 -0.0209144 0 0 -0.0209144 0 0 -0.0209144 0 0 -0.0209144 0 0 -0.0209144 0 0 -0.0209144 0 0 -0.0209144 0 0 -0.0209144 0 0 -0.0209144 0 0 -0.0209144 0 0 -0.0209144 0 0 -0.0209144 0 0 -0.0209144 0 0 -0.0209144 0 0 -0.0209144 0 0 -0.0209144 0 0 -0.0209144 0 0 -0.0209144 0 0 -0.0209144 0 0 -0.0209144 0 0 -0.0209144 0 0 -0.0209144 0 0 -0.0209144 0 0 -0.0209144 0 0 -0.0209144 0 0 -0.0209144 0 0 -0.0209144 0 0 -0.0209144 0 0 -0.0209144 0 0 -0.0209144 0 0 -0.0209144 0 0 -0.0209144 0 0 -0.0209144 0 0 -0.0209144 0 0 -0.0209144 0 0 -0.0209144 0 0 -0.0209144 0 0 -0.0209144 0 0 -0.0209144 0 0 -0.0209144 0 0 -0.0209144 0 0 -0.0209144 0 0 -0.0209144 0 0 -0.0209144 0 0 -0.0209144 0 0 -0.0209144 0 0 -0.0209144 0