<?xml version="1.0"?> 
<VTKFile type="StructuredGrid" version="0.1"> 
<StructuredGrid WholeExtent="0 100 0 100 0 0"> 
<Piece Extent="0 100 0 100 0 0"> 
<PointData Vectors="Displ">
<DataArray type="Float32" Name="Displ" format="ascii" NumberOfComponents="3"> 
-0.000183669 0 0 -0.000183629 -2.60343e-06 0 -0.000183556 -5.22169e-06 0 -0.00018345 -7.85409e-06 0 -0.00018331 -1.04999e-05 0 -0.000183135 -1.31585e-05 0 -0.000182926 -1.5829e-05 0 -0.000182679 -1.85106e-05 0 -0.000182391 -2.12021e-05 0 -0.00018206 -2.39026e-05 0 -0.000181686 -2.66113e-05 0 -0.000181269 -2.93274e-05 0 -0.000180807 -3.20498e-05 0 -0.000180301 -3.47778e-05 0 -0.000179751 -3.75104e-05 0 -0.000179158 -4.02469e-05 0 -0.00017852 -4.29862e-05 0 -0.000177837 -4.57272e-05 0 -0.000177109 -4.8469e-05 0 -0.000176336 -5.12105e-05 0 -0.000175518 -5.39506e-05 0 -0.000174653 -5.66881e-05 0 -0.000173742 -5.9422e-05 0 -0.000172785 -6.21511e-05 0 -0.000171781 -6.48744e-05 0 -0.00017073 -6.75907e-05 0 -0.000169633 -7.02988e-05 0 -0.000168489 -7.29976e-05 0 -0.000167299 -7.5686e-05 0 -0.000166062 -7.83628e-05 0 -0.000164778 -8.10268e-05 0 -0.000163449 -8.36768e-05 0 -0.000162073 -8.63116e-05 0 -0.000160651 -8.89302e-05 0 -0.000159183 -9.15312e-05 0 -0.00015767 -9.41136e-05 0 -0.000156112 -9.66761e-05 0 -0.000154509 -9.92176e-05 0 -0.000152862 -0.000101737 0 -0.000151171 -0.000104233 0 -0.000149437 -0.000106705 0 -0.00014766 -0.000109151 0 -0.00014584 -0.00011157 0 -0.000143979 -0.000113962 0 -0.000142077 -0.000116325 0 -0.000140134 -0.000118658 0 -0.000138152 -0.00012096 0 -0.00013613 -0.000123231 0 -0.000134071 -0.000125468 0 -0.000131974 -0.000127672 0 -0.000129841 -0.000129841 0 -0.000127672 -0.000131974 0 -0.000125468 -0.000134071 0 -0.000123231 -0.00013613 0 -0.00012096 -0.000138152 0 -0.000118658 -0.000140134 0 -0.000116325 -0.000142077 0 -0.000113962 -0.000143979 0 -0.00011157 -0.00014584 0 -0.000109151 -0.00014766 0 -0.000106705 -0.000149437 0 -0.000104233 -0.000151171 0 -0.000101737 -0.000152862 0 -9.92176e-05 -0.000154509 0 -9.66761e-05 -0.000156112 0 -9.41136e-05 -0.00015767 0 -9.15312e-05 -0.000159183 0 -8.89302e-05 -0.000160651 0 -8.63116e-05 -0.000162073 0 -8.36768e-05 -0.000163449 0 -8.10268e-05 -0.000164778 0 -7.83628e-05 -0.000166062 0 -7.5686e-05 -0.000167299 0 -7.29976e-05 -0.000168489 0 -7.02988e-05 -0.000169633 0 -6.75907e-05 -0.00017073 0 -6.48744e-05 -0.000171781 0 -6.21511e-05 -0.000172785 0 -5.9422e-05 -0.000173742 0 -5.66881e-05 -0.000174653 0 -5.39506e-05 -0.000175518 0 -5.12105e-05 -0.000176336 0 -4.8469e-05 -0.000177109 0 -4.57272e-05 -0.000177837 0 -4.29862e-05 -0.00017852 0 -4.02469e-05 -0.000179158 0 -3.75104e-05 -0.000179751 0 -3.47778e-05 -0.000180301 0 -3.20498e-05 -0.000180807 0 -2.93274e-05 -0.000181269 0 -2.66113e-05 -0.000181686 0 -2.39026e-05 -0.00018206 0 -2.12021e-05 -0.000182391 0 -1.85106e-05 -0.000182679 0 -1.5829e-05 -0.000182926 0 -1.31585e-05 -0.000183135 0 -1.04999e-05 -0.00018331 0 -7.85409e-06 -0.00018345 0 -5.22169e-06 -0.000183556 0 -2.60343e-06 -0.000183629 0 0 -0.000183669 0 -0.000178176 0 0 -0.00017814 -2.52607e-06 0 -0.000178071 -5.06639e-06 0 -0.00017797 -7.6203e-06 0 -0.000177835 -1.01871e-05 0 -0.000177666 -1.27662e-05 0 -0.000177463 -1.53566e-05 0 -0.000177223 -1.79578e-05 0 -0.000176943 -2.05686e-05 0 -0.000176622 -2.31882e-05 0 -0.000176259 -2.5816e-05 0 -0.000175853 -2.84508e-05 0 -0.000175405 -3.1092e-05 0 -0.000174915 -3.37386e-05 0 -0.000174381 -3.63898e-05 0 -0.000173806 -3.90446e-05 0 -0.000173187 -4.17021e-05 0 -0.000172524 -4.43612e-05 0 -0.000171818 -4.70211e-05 0 -0.000171069 -4.96807e-05 0 -0.000170274 -5.23388e-05 0 -0.000169436 -5.49946e-05 0 -0.000168552 -5.76468e-05 0 -0.000167623 -6.02944e-05 0 -0.000166649 -6.29363e-05 0 -0.00016563 -6.55714e-05 0 -0.000164566 -6.81987e-05 0 -0.000163456 -7.08169e-05 0 -0.000162301 -7.3425e-05 0 -0.000161101 -7.60218e-05 0 -0.000159856 -7.86062e-05 0 -0.000158566 -8.1177e-05 0 -0.000157231 -8.37332e-05 0 -0.000155852 -8.62735e-05 0 -0.000154428 -8.87968e-05 0 -0.00015296 -9.1302e-05 0 -0.000151449 -9.3788e-05 0 -0.000149894 -9.62536e-05 0 -0.000148296 -9.86977e-05 0 -0.000146655 -0.000101119 0 -0.000144973 -0.000103517 0 -0.000143249 -0.00010589 0 -0.000141483 -0.000108237 0 -0.000139678 -0.000110558 0 -0.000137832 -0.00011285 0 -0.000135948 -0.000115113 0 -0.000134025 -0.000117347 0 -0.000132064 -0.000119549 0 -0.000130066 -0.00012172 0 -0.000128032 -0.000123858 0 -0.000125962 -0.000125962 0 -0.000123858 -0.000128032 0 -0.00012172 -0.000130066 0 -0.000119549 -0.000132064 0 -0.000117347 -0.000134025 0 -0.000115113 -0.000135948 0 -0.00011285 -0.000137832 0 -0.000110558 -0.000139678 0 -0.000108237 -0.000141483 0 -0.00010589 -0.000143249 0 -0.000103517 -0.000144973 0 -0.000101119 -0.000146655 0 -9.86977e-05 -0.000148296 0 -9.62536e-05 -0.000149894 0 -9.3788e-05 -0.000151449 0 -9.1302e-05 -0.00015296 0 -8.87968e-05 -0.000154428 0 -8.62735e-05 -0.000155852 0 -8.37332e-05 -0.000157231 0 -8.1177e-05 -0.000158566 0 -7.86062e-05 -0.000159856 0 -7.60218e-05 -0.000161101 0 -7.3425e-05 -0.000162301 0 -7.08169e-05 -0.000163456 0 -6.81987e-05 -0.000164566 0 -6.55714e-05 -0.00016563 0 -6.29363e-05 -0.000166649 0 -6.02944e-05 -0.000167623 0 -5.76468e-05 -0.000168552 0 -5.49946e-05 -0.000169436 0 -5.23388e-05 -0.000170274 0 -4.96807e-05 -0.000171069 0 -4.70211e-05 -0.000171818 0 -4.43612e-05 -0.000172524 0 -4.17021e-05 -0.000173187 0 -3.90446e-05 -0.000173806 0 -3.63898e-05 -0.000174381 0 -3.37386e-05 -0.000174915 0 -3.1092e-05 -0.000175405 0 -2.84508e-05 -0.000175853 0 -2.5816e-05 -0.000176259 0 -2.31882e-05 -0.000176622 0 -2.05686e-05 -0.000176943 0 -1.79578e-05 -0.000177223 0 -1.53566e-05 -0.000177463 0 -1.27662e-05 -0.000177666 0 -1.01871e-05 -0.000177835 0 -7.6203e-06 -0.00017797 0 -5.06639e-06 -0.000178071 0 -2.52607e-06 -0.00017814 0 0 -0.000178176 0 -0.000173683 0 0 -0.00017365 -2.46277e-06 0 -0.000173586 -4.93933e-06 0 -0.000173488 -7.42905e-06 0 -0.000173358 -9.93124e-06 0 -0.000173193 -1.24452e-05 0 -0.000172995 -1.49702e-05 0 -0.00017276 -1.75056e-05 0 -0.000172487 -2.00504e-05 0 -0.000172173 -2.2604e-05 0 -0.000171819 -2.51654e-05 0 -0.000171424 -2.77339e-05 0 -0.000170987 -3.03086e-05 0 -0.000170509 -3.28887e-05 0 -0.000169989 -3.54732e-05 0 -0.000169428 -3.80612e-05 0 -0.000168825 -4.06518e-05 0 -0.000168179 -4.3244e-05 0 -0.000167491 -4.58369e-05 0 -0.00016676 -4.84294e-05 0 -0.000165986 -5.10206e-05 0 -0.000165168 -5.36094e-05 0 -0.000164307 -5.61948e-05 0 -0.000163401 -5.87757e-05 0 -0.000162452 -6.13511e-05 0 -0.000161458 -6.39199e-05 0 -0.000160421 -6.64809e-05 0 -0.000159339 -6.90332e-05 0 -0.000158213 -7.15756e-05 0 -0.000157043 -7.4107e-05 0 -0.00015583 -7.66263e-05 0 -0.000154572 -7.91324e-05 0 -0.000153271 -8.16242e-05 0 -0.000151926 -8.41005e-05 0 -0.000150538 -8.65603e-05 0 -0.000149108 -8.90024e-05 0 -0.000147634 -9.14258e-05 0 -0.000146118 -9.38293e-05 0 -0.000144561 -9.62119e-05 0 -0.000142961 -9.85724e-05 0 -0.000141321 -0.00010091 0 -0.000139641 -0.000103223 0 -0.00013792 -0.000105511 0 -0.00013616 -0.000107773 0 -0.000134361 -0.000110008 0 -0.000132524 -0.000112214 0 -0.000130649 -0.000114391 0 -0.000128737 -0.000116538 0 -0.00012679 -0.000118654 0 -0.000124807 -0.000120738 0 -0.000122789 -0.000122789 0 -0.000120738 -0.000124807 0 -0.000118654 -0.00012679 0 -0.000116538 -0.000128737 0 -0.000114391 -0.000130649 0 -0.000112214 -0.000132524 0 -0.000110008 -0.000134361 0 -0.000107773 -0.00013616 0 -0.000105511 -0.00013792 0 -0.000103223 -0.000139641 0 -0.00010091 -0.000141321 0 -9.85724e-05 -0.000142961 0 -9.62119e-05 -0.000144561 0 -9.38293e-05 -0.000146118 0 -9.14258e-05 -0.000147634 0 -8.90024e-05 -0.000149108 0 -8.65603e-05 -0.000150538 0 -8.41005e-05 -0.000151926 0 -8.16242e-05 -0.000153271 0 -7.91324e-05 -0.000154572 0 -7.66263e-05 -0.00015583 0 -7.4107e-05 -0.000157043 0 -7.15756e-05 -0.000158213 0 -6.90332e-05 -0.000159339 0 -6.64809e-05 -0.000160421 0 -6.39199e-05 -0.000161458 0 -6.13511e-05 -0.000162452 0 -5.87757e-05 -0.000163401 0 -5.61948e-05 -0.000164307 0 -5.36094e-05 -0.000165168 0 -5.10206e-05 -0.000165986 0 -4.84294e-05 -0.00016676 0 -4.58369e-05 -0.000167491 0 -4.3244e-05 -0.000168179 0 -4.06518e-05 -0.000168825 0 -3.80612e-05 -0.000169428 0 -3.54732e-05 -0.000169989 0 -3.28887e-05 -0.000170509 0 -3.03086e-05 -0.000170987 0 -2.77339e-05 -0.000171424 0 -2.51654e-05 -0.000171819 0 -2.2604e-05 -0.000172173 0 -2.00504e-05 -0.000172487 0 -1.75056e-05 -0.00017276 0 -1.49702e-05 -0.000172995 0 -1.24452e-05 -0.000173193 0 -9.93124e-06 -0.000173358 0 -7.42905e-06 -0.000173488 0 -4.93933e-06 -0.000173586 0 -2.46277e-06 -0.00017365 0 0 -0.000173683 0 -0.00017019 0 0 -0.00017016 -2.41354e-06 0 -0.000170098 -4.84053e-06 0 -0.000170004 -7.28032e-06 0 -0.000169877 -9.73227e-06 0 -0.000169716 -1.21957e-05 0 -0.000169522 -1.46699e-05 0 -0.000169291 -1.71541e-05 0 -0.000169023 -1.96477e-05 0 -0.000168715 -2.21498e-05 0 -0.000168368 -2.46598e-05 0 -0.00016798 -2.71767e-05 0 -0.000167553 -2.96997e-05 0 -0.000167084 -3.2228e-05 0 -0.000166575 -3.47606e-05 0 -0.000166025 -3.72967e-05 0 -0.000165434 -3.98353e-05 0 -0.000164801 -4.23755e-05 0 -0.000164127 -4.49163e-05 0 -0.000163411 -4.74567e-05 0 -0.000162652 -4.99958e-05 0 -0.000161851 -5.25326e-05 0 -0.000161006 -5.50661e-05 0 -0.000160119 -5.75951e-05 0 -0.000159189 -6.01188e-05 0 -0.000158215 -6.2636e-05 0 -0.000157199 -6.51456e-05 0 -0.000156139 -6.76466e-05 0 -0.000155035 -7.0138e-05 0 -0.000153889 -7.26186e-05 0 -0.0001527 -7.50873e-05 0 -0.000151468 -7.7543e-05 0 -0.000150192 -7.99847e-05 0 -0.000148875 -8.24113e-05 0 -0.000147515 -8.48217e-05 0 -0.000146113 -8.72148e-05 0 -0.000144669 -8.95895e-05 0 -0.000143184 -9.19447e-05 0 -0.000141657 -9.42794e-05 0 -0.00014009 -9.65925e-05 0 -0.000138483 -9.8883e-05 0 -0.000136836 -0.00010115 0 -0.00013515 -0.000103392 0 -0.000133425 -0.000105608 0 -0.000131662 -0.000107798 0 -0.000129862 -0.00010996 0 -0.000128025 -0.000112094 0 -0.000126152 -0.000114198 0 -0.000124243 -0.000116271 0 -0.0001223 -0.000118313 0 -0.000120323 -0.000120323 0 -0.000118313 -0.0001223 0 -0.000116271 -0.000124243 0 -0.000114198 -0.000126152 0 -0.000112094 -0.000128025 0 -0.00010996 -0.000129862 0 -0.000107798 -0.000131662 0 -0.000105608 -0.000133425 0 -0.000103392 -0.00013515 0 -0.00010115 -0.000136836 0 -9.8883e-05 -0.000138483 0 -9.65925e-05 -0.00014009 0 -9.42794e-05 -0.000141657 0 -9.19447e-05 -0.000143184 0 -8.95895e-05 -0.000144669 0 -8.72148e-05 -0.000146113 0 -8.48217e-05 -0.000147515 0 -8.24113e-05 -0.000148875 0 -7.99847e-05 -0.000150192 0 -7.7543e-05 -0.000151468 0 -7.50873e-05 -0.0001527 0 -7.26186e-05 -0.000153889 0 -7.0138e-05 -0.000155035 0 -6.76466e-05 -0.000156139 0 -6.51456e-05 -0.000157199 0 -6.2636e-05 -0.000158215 0 -6.01188e-05 -0.000159189 0 -5.75951e-05 -0.000160119 0 -5.50661e-05 -0.000161006 0 -5.25326e-05 -0.000161851 0 -4.99958e-05 -0.000162652 0 -4.74567e-05 -0.000163411 0 -4.49163e-05 -0.000164127 0 -4.23755e-05 -0.000164801 0 -3.98353e-05 -0.000165434 0 -3.72967e-05 -0.000166025 0 -3.47606e-05 -0.000166575 0 -3.2228e-05 -0.000167084 0 -2.96997e-05 -0.000167553 0 -2.71767e-05 -0.00016798 0 -2.46598e-05 -0.000168368 0 -2.21498e-05 -0.000168715 0 -1.96477e-05 -0.000169023 0 -1.71541e-05 -0.000169291 0 -1.46699e-05 -0.000169522 0 -1.21957e-05 -0.000169716 0 -9.73227e-06 -0.000169877 0 -7.28032e-06 -0.000170004 0 -4.84053e-06 -0.000170098 0 -2.41354e-06 -0.00017016 0 0 -0.00017019 0 -0.000167696 0 0 -0.000167669 -2.37839e-06 0 -0.000167609 -4.76997e-06 0 -0.000167518 -7.17413e-06 0 -0.000167393 -9.59022e-06 0 -0.000167235 -1.20176e-05 0 -0.000167043 -1.44555e-05 0 -0.000166816 -1.69032e-05 0 -0.000166551 -1.93602e-05 0 -0.000166247 -2.18257e-05 0 -0.000165905 -2.42989e-05 0 -0.000165523 -2.6779e-05 0 -0.000165102 -2.92652e-05 0 -0.00016464 -3.17565e-05 0 -0.000164138 -3.42521e-05 0 -0.000163597 -3.67511e-05 0 -0.000163014 -3.92526e-05 0 -0.000162391 -4.17557e-05 0 -0.000161726 -4.42593e-05 0 -0.000161021 -4.67626e-05 0 -0.000160273 -4.92645e-05 0 -0.000159483 -5.17642e-05 0 -0.000158651 -5.42606e-05 0 -0.000157777 -5.67527e-05 0 -0.00015686 -5.92394e-05 0 -0.000155901 -6.17198e-05 0 -0.000154899 -6.41927e-05 0 -0.000153855 -6.66572e-05 0 -0.000152768 -6.91121e-05 0 -0.000151638 -7.15564e-05 0 -0.000150466 -7.3989e-05 0 -0.000149252 -7.64088e-05 0 -0.000147996 -7.88148e-05 0 -0.000146697 -8.12059e-05 0 -0.000145357 -8.3581e-05 0 -0.000143976 -8.59391e-05 0 -0.000142553 -8.82791e-05 0 -0.000141089 -9.05998e-05 0 -0.000139585 -9.29004e-05 0 -0.000138041 -9.51797e-05 0 -0.000136457 -9.74367e-05 0 -0.000134834 -9.96703e-05 0 -0.000133173 -0.00010188 0 -0.000131473 -0.000104064 0 -0.000129736 -0.000106221 0 -0.000127962 -0.000108352 0 -0.000126152 -0.000110454 0 -0.000124306 -0.000112527 0 -0.000122426 -0.00011457 0 -0.000120511 -0.000116583 0 -0.000118563 -0.000118563 0 -0.000116583 -0.000120511 0 -0.00011457 -0.000122426 0 -0.000112527 -0.000124306 0 -0.000110454 -0.000126152 0 -0.000108352 -0.000127962 0 -0.000106221 -0.000129736 0 -0.000104064 -0.000131473 0 -0.00010188 -0.000133173 0 -9.96703e-05 -0.000134834 0 -9.74367e-05 -0.000136457 0 -9.51797e-05 -0.000138041 0 -9.29004e-05 -0.000139585 0 -9.05998e-05 -0.000141089 0 -8.82791e-05 -0.000142553 0 -8.59391e-05 -0.000143976 0 -8.3581e-05 -0.000145357 0 -8.12059e-05 -0.000146697 0 -7.88148e-05 -0.000147996 0 -7.64088e-05 -0.000149252 0 -7.3989e-05 -0.000150466 0 -7.15564e-05 -0.000151638 0 -6.91121e-05 -0.000152768 0 -6.66572e-05 -0.000153855 0 -6.41927e-05 -0.000154899 0 -6.17198e-05 -0.000155901 0 -5.92394e-05 -0.00015686 0 -5.67527e-05 -0.000157777 0 -5.42606e-05 -0.000158651 0 -5.17642e-05 -0.000159483 0 -4.92645e-05 -0.000160273 0 -4.67626e-05 -0.000161021 0 -4.42593e-05 -0.000161726 0 -4.17557e-05 -0.000162391 0 -3.92526e-05 -0.000163014 0 -3.67511e-05 -0.000163597 0 -3.42521e-05 -0.000164138 0 -3.17565e-05 -0.00016464 0 -2.92652e-05 -0.000165102 0 -2.6779e-05 -0.000165523 0 -2.42989e-05 -0.000165905 0 -2.18257e-05 -0.000166247 0 -1.93602e-05 -0.000166551 0 -1.69032e-05 -0.000166816 0 -1.44555e-05 -0.000167043 0 -1.20176e-05 -0.000167235 0 -9.59022e-06 -0.000167393 0 -7.17413e-06 -0.000167518 0 -4.76997e-06 -0.000167609 0 -2.37839e-06 -0.000167669 0 0 -0.000167696 0 -0.000166202 0 0 -0.000166176 -2.3573e-06 0 -0.000166119 -4.72766e-06 0 -0.00016603 -7.11048e-06 0 -0.000165907 -9.5051e-06 0 -0.00016575 -1.19109e-05 0 -0.00016556 -1.43271e-05 0 -0.000165334 -1.6753e-05 0 -0.000165071 -1.91882e-05 0 -0.00016477 -2.16318e-05 0 -0.00016443 -2.4083e-05 0 -0.000164052 -2.6541e-05 0 -0.000163634 -2.9005e-05 0 -0.000163177 -3.14743e-05 0 -0.00016268 -3.39477e-05 0 -0.000162143 -3.64245e-05 0 -0.000161565 -3.89038e-05 0 -0.000160948 -4.13846e-05 0 -0.000160289 -4.3866e-05 0 -0.00015959 -4.6347e-05 0 -0.000158849 -4.88267e-05 0 -0.000158066 -5.13042e-05 0 -0.000157241 -5.37784e-05 0 -0.000156375 -5.62483e-05 0 -0.000155466 -5.87129e-05 0 -0.000154516 -6.11713e-05 0 -0.000153523 -6.36222e-05 0 -0.000152488 -6.60648e-05 0 -0.00015141 -6.84979e-05 0 -0.000150291 -7.09204e-05 0 -0.000149129 -7.33314e-05 0 -0.000147926 -7.57298e-05 0 -0.00014668 -7.81144e-05 0 -0.000145394 -8.04842e-05 0 -0.000144065 -8.28382e-05 0 -0.000142696 -8.51754e-05 0 -0.000141286 -8.74945e-05 0 -0.000139835 -8.97947e-05 0 -0.000138345 -9.20748e-05 0 -0.000136814 -9.43338e-05 0 -0.000135245 -9.65707e-05 0 -0.000133636 -9.87845e-05 0 -0.000131989 -0.000100974 0 -0.000130305 -0.000103139 0 -0.000128583 -0.000105277 0 -0.000126825 -0.000107389 0 -0.000125031 -0.000109472 0 -0.000123202 -0.000111527 0 -0.000121338 -0.000113552 0 -0.00011944 -0.000115547 0 -0.00011751 -0.00011751 0 -0.000115547 -0.00011944 0 -0.000113552 -0.000121338 0 -0.000111527 -0.000123202 0 -0.000109472 -0.000125031 0 -0.000107389 -0.000126825 0 -0.000105277 -0.000128583 0 -0.000103139 -0.000130305 0 -0.000100974 -0.000131989 0 -9.87845e-05 -0.000133636 0 -9.65707e-05 -0.000135245 0 -9.43338e-05 -0.000136814 0 -9.20748e-05 -0.000138345 0 -8.97947e-05 -0.000139835 0 -8.74945e-05 -0.000141286 0 -8.51754e-05 -0.000142696 0 -8.28382e-05 -0.000144065 0 -8.04842e-05 -0.000145394 0 -7.81144e-05 -0.00014668 0 -7.57298e-05 -0.000147926 0 -7.33314e-05 -0.000149129 0 -7.09204e-05 -0.000150291 0 -6.84979e-05 -0.00015141 0 -6.60648e-05 -0.000152488 0 -6.36222e-05 -0.000153523 0 -6.11713e-05 -0.000154516 0 -5.87129e-05 -0.000155466 0 -5.62483e-05 -0.000156375 0 -5.37784e-05 -0.000157241 0 -5.13042e-05 -0.000158066 0 -4.88267e-05 -0.000158849 0 -4.6347e-05 -0.00015959 0 -4.3866e-05 -0.000160289 0 -4.13846e-05 -0.000160948 0 -3.89038e-05 -0.000161565 0 -3.64245e-05 -0.000162143 0 -3.39477e-05 -0.00016268 0 -3.14743e-05 -0.000163177 0 -2.9005e-05 -0.000163634 0 -2.6541e-05 -0.000164052 0 -2.4083e-05 -0.00016443 0 -2.16318e-05 -0.00016477 0 -1.91882e-05 -0.000165071 0 -1.6753e-05 -0.000165334 0 -1.43271e-05 -0.00016556 0 -1.19109e-05 -0.00016575 0 -9.5051e-06 -0.000165907 0 -7.11048e-06 -0.00016603 0 -4.72766e-06 -0.000166119 0 -2.3573e-06 -0.000166176 0 0 -0.000166202 0 -0.000165707 0 0 -0.000165684 -2.35028e-06 0 -0.000165628 -4.7136e-06 0 -0.000165539 -7.08935e-06 0 -0.000165417 -9.47689e-06 0 -0.000165261 -1.18756e-05 0 -0.000165071 -1.42847e-05 0 -0.000164846 -1.67035e-05 0 -0.000164583 -1.91315e-05 0 -0.000164283 -2.15679e-05 0 -0.000163944 -2.40118e-05 0 -0.000163567 -2.64626e-05 0 -0.00016315 -2.89194e-05 0 -0.000162694 -3.13813e-05 0 -0.000162199 -3.38474e-05 0 -0.000161663 -3.63169e-05 0 -0.000161088 -3.87888e-05 0 -0.000160472 -4.12622e-05 0 -0.000159815 -4.37363e-05 0 -0.000159118 -4.621e-05 0 -0.000158379 -4.86824e-05 0 -0.000157599 -5.11525e-05 0 -0.000156777 -5.36194e-05 0 -0.000155913 -5.6082e-05 0 -0.000155007 -5.85394e-05 0 -0.000154059 -6.09904e-05 0 -0.000153069 -6.34342e-05 0 -0.000152037 -6.58695e-05 0 -0.000150963 -6.82954e-05 0 -0.000149846 -7.07108e-05 0 -0.000148688 -7.31146e-05 0 -0.000147488 -7.55059e-05 0 -0.000146247 -7.78835e-05 0 -0.000144964 -8.02463e-05 0 -0.000143639 -8.25934e-05 0 -0.000142274 -8.49236e-05 0 -0.000140868 -8.72359e-05 0 -0.000139422 -8.95292e-05 0 -0.000137936 -9.18026e-05 0 -0.00013641 -9.4055e-05 0 -0.000134845 -9.62853e-05 0 -0.000133241 -9.84925e-05 0 -0.000131599 -0.000100676 0 -0.00012992 -0.000102834 0 -0.000128203 -0.000104966 0 -0.00012645 -0.000107071 0 -0.000124662 -0.000109149 0 -0.000122838 -0.000111198 0 -0.000120979 -0.000113217 0 -0.000119087 -0.000115205 0 -0.000117162 -0.000117162 0 -0.000115205 -0.000119087 0 -0.000113217 -0.000120979 0 -0.000111198 -0.000122838 0 -0.000109149 -0.000124662 0 -0.000107071 -0.00012645 0 -0.000104966 -0.000128203 0 -0.000102834 -0.00012992 0 -0.000100676 -0.000131599 0 -9.84925e-05 -0.000133241 0 -9.62853e-05 -0.000134845 0 -9.4055e-05 -0.00013641 0 -9.18026e-05 -0.000137936 0 -8.95292e-05 -0.000139422 0 -8.72359e-05 -0.000140868 0 -8.49236e-05 -0.000142274 0 -8.25934e-05 -0.000143639 0 -8.02463e-05 -0.000144964 0 -7.78835e-05 -0.000146247 0 -7.55059e-05 -0.000147488 0 -7.31146e-05 -0.000148688 0 -7.07108e-05 -0.000149846 0 -6.82954e-05 -0.000150963 0 -6.58695e-05 -0.000152037 0 -6.34342e-05 -0.000153069 0 -6.09904e-05 -0.000154059 0 -5.85394e-05 -0.000155007 0 -5.6082e-05 -0.000155913 0 -5.36194e-05 -0.000156777 0 -5.11525e-05 -0.000157599 0 -4.86824e-05 -0.000158379 0 -4.621e-05 -0.000159118 0 -4.37363e-05 -0.000159815 0 -4.12622e-05 -0.000160472 0 -3.87888e-05 -0.000161088 0 -3.63169e-05 -0.000161663 0 -3.38474e-05 -0.000162199 0 -3.13813e-05 -0.000162694 0 -2.89194e-05 -0.00016315 0 -2.64626e-05 -0.000163567 0 -2.40118e-05 -0.000163944 0 -2.15679e-05 -0.000164283 0 -1.91315e-05 -0.000164583 0 -1.67035e-05 -0.000164846 0 -1.42847e-05 -0.000165071 0 -1.18756e-05 -0.000165261 0 -9.47689e-06 -0.000165417 0 -7.08935e-06 -0.000165539 0 -4.7136e-06 -0.000165628 0 -2.35028e-06 -0.000165684 0 0 -0.000165707 0 -0.000166018 0 0 -0.000165995 -2.3546e-06 0 -0.00016594 -4.72231e-06 0 -0.000165852 -7.10251e-06 0 -0.00016573 -9.49456e-06 0 -0.000165574 -1.18978e-05 0 -0.000165384 -1.43115e-05 0 -0.000165158 -1.67351e-05 0 -0.000164895 -1.91677e-05 0 -0.000164593 -2.16087e-05 0 -0.000164254 -2.40573e-05 0 -0.000163876 -2.65127e-05 0 -0.000163458 -2.89741e-05 0 -0.000163002 -3.14406e-05 0 -0.000162505 -3.39114e-05 0 -0.000161969 -3.63855e-05 0 -0.000161392 -3.88621e-05 0 -0.000160775 -4.13402e-05 0 -0.000160118 -4.38189e-05 0 -0.000159419 -4.62973e-05 0 -0.000158678 -4.87744e-05 0 -0.000157897 -5.12492e-05 0 -0.000157073 -5.37208e-05 0 -0.000156207 -5.61881e-05 0 -0.0001553 -5.86501e-05 0 -0.00015435 -6.11057e-05 0 -0.000153358 -6.35541e-05 0 -0.000152324 -6.5994e-05 0 -0.000151248 -6.84245e-05 0 -0.00015013 -7.08444e-05 0 -0.000148969 -7.32528e-05 0 -0.000147767 -7.56486e-05 0 -0.000146523 -7.80307e-05 0 -0.000145238 -8.0398e-05 0 -0.000143911 -8.27495e-05 0 -0.000142543 -8.50841e-05 0 -0.000141135 -8.74008e-05 0 -0.000139685 -8.96984e-05 0 -0.000138196 -9.19761e-05 0 -0.000136668 -9.42327e-05 0 -0.0001351 -9.64672e-05 0 -0.000133493 -9.86787e-05 0 -0.000131848 -0.000100866 0 -0.000130165 -0.000103028 0 -0.000128446 -0.000105165 0 -0.000126689 -0.000107274 0 -0.000124897 -0.000109355 0 -0.00012307 -0.000111408 0 -0.000121208 -0.000113431 0 -0.000119312 -0.000115423 0 -0.000117384 -0.000117384 0 -0.000115423 -0.000119312 0 -0.000113431 -0.000121208 0 -0.000111408 -0.00012307 0 -0.000109355 -0.000124897 0 -0.000107274 -0.000126689 0 -0.000105165 -0.000128446 0 -0.000103028 -0.000130165 0 -0.000100866 -0.000131848 0 -9.86787e-05 -0.000133493 0 -9.64672e-05 -0.0001351 0 -9.42327e-05 -0.000136668 0 -9.19761e-05 -0.000138196 0 -8.96984e-05 -0.000139685 0 -8.74008e-05 -0.000141135 0 -8.50841e-05 -0.000142543 0 -8.27495e-05 -0.000143911 0 -8.0398e-05 -0.000145238 0 -7.80307e-05 -0.000146523 0 -7.56486e-05 -0.000147767 0 -7.32528e-05 -0.000148969 0 -7.08444e-05 -0.00015013 0 -6.84245e-05 -0.000151248 0 -6.5994e-05 -0.000152324 0 -6.35541e-05 -0.000153358 0 -6.11057e-05 -0.00015435 0 -5.86501e-05 -0.0001553 0 -5.61881e-05 -0.000156207 0 -5.37208e-05 -0.000157073 0 -5.12492e-05 -0.000157897 0 -4.87744e-05 -0.000158678 0 -4.62973e-05 -0.000159419 0 -4.38189e-05 -0.000160118 0 -4.13402e-05 -0.000160775 0 -3.88621e-05 -0.000161392 0 -3.63855e-05 -0.000161969 0 -3.39114e-05 -0.000162505 0 -3.14406e-05 -0.000163002 0 -2.89741e-05 -0.000163458 0 -2.65127e-05 -0.000163876 0 -2.40573e-05 -0.000164254 0 -2.16087e-05 -0.000164593 0 -1.91677e-05 -0.000164895 0 -1.67351e-05 -0.000165158 0 -1.43115e-05 -0.000165384 0 -1.18978e-05 -0.000165574 0 -9.49456e-06 -0.00016573 0 -7.10251e-06 -0.000165852 0 -4.72231e-06 -0.00016594 0 -2.3546e-06 -0.000165995 0 0 -0.000166018 0 -0.000166658 0 0 -0.000166637 -2.36362e-06 0 -0.000166582 -4.74043e-06 0 -0.000166494 -7.1298e-06 0 -0.000166372 -9.53111e-06 0 -0.000166216 -1.19437e-05 0 -0.000166024 -1.43668e-05 0 -0.000165797 -1.67998e-05 0 -0.000165533 -1.92419e-05 0 -0.00016523 -2.16924e-05 0 -0.000164889 -2.41505e-05 0 -0.00016451 -2.66154e-05 0 -0.000164091 -2.90863e-05 0 -0.000163632 -3.15623e-05 0 -0.000163134 -3.40426e-05 0 -0.000162596 -3.65263e-05 0 -0.000162017 -3.90124e-05 0 -0.000161398 -4.15001e-05 0 -0.000160737 -4.39884e-05 0 -0.000160036 -4.64764e-05 0 -0.000159292 -4.89631e-05 0 -0.000158508 -5.14475e-05 0 -0.000157681 -5.39286e-05 0 -0.000156812 -5.64055e-05 0 -0.000155901 -5.8877e-05 0 -0.000154947 -6.13422e-05 0 -0.000153952 -6.38e-05 0 -0.000152913 -6.62493e-05 0 -0.000151833 -6.86892e-05 0 -0.00015071 -7.11185e-05 0 -0.000149546 -7.35363e-05 0 -0.000148339 -7.59413e-05 0 -0.00014709 -7.83326e-05 0 -0.0001458 -8.07091e-05 0 -0.000144468 -8.30696e-05 0 -0.000143095 -8.54133e-05 0 -0.000141681 -8.77389e-05 0 -0.000140226 -9.00455e-05 0 -0.000138731 -9.2332e-05 0 -0.000137196 -9.45973e-05 0 -0.000135622 -9.68405e-05 0 -0.000134009 -9.90605e-05 0 -0.000132358 -0.000101256 0 -0.000130669 -0.000103427 0 -0.000128943 -0.000105571 0 -0.000127179 -0.000107689 0 -0.00012538 -0.000109778 0 -0.000123546 -0.000111839 0 -0.000121677 -0.000113869 0 -0.000119774 -0.000115869 0 -0.000117838 -0.000117838 0 -0.000115869 -0.000119774 0 -0.000113869 -0.000121677 0 -0.000111839 -0.000123546 0 -0.000109778 -0.00012538 0 -0.000107689 -0.000127179 0 -0.000105571 -0.000128943 0 -0.000103427 -0.000130669 0 -0.000101256 -0.000132358 0 -9.90605e-05 -0.000134009 0 -9.68405e-05 -0.000135622 0 -9.45973e-05 -0.000137196 0 -9.2332e-05 -0.000138731 0 -9.00455e-05 -0.000140226 0 -8.77389e-05 -0.000141681 0 -8.54133e-05 -0.000143095 0 -8.30696e-05 -0.000144468 0 -8.07091e-05 -0.0001458 0 -7.83326e-05 -0.00014709 0 -7.59413e-05 -0.000148339 0 -7.35363e-05 -0.000149546 0 -7.11185e-05 -0.00015071 0 -6.86892e-05 -0.000151833 0 -6.62493e-05 -0.000152913 0 -6.38e-05 -0.000153952 0 -6.13422e-05 -0.000154947 0 -5.8877e-05 -0.000155901 0 -5.64055e-05 -0.000156812 0 -5.39286e-05 -0.000157681 0 -5.14475e-05 -0.000158508 0 -4.89631e-05 -0.000159292 0 -4.64764e-05 -0.000160036 0 -4.39884e-05 -0.000160737 0 -4.15001e-05 -0.000161398 0 -3.90124e-05 -0.000162017 0 -3.65263e-05 -0.000162596 0 -3.40426e-05 -0.000163134 0 -3.15623e-05 -0.000163632 0 -2.90863e-05 -0.000164091 0 -2.66154e-05 -0.00016451 0 -2.41505e-05 -0.000164889 0 -2.16924e-05 -0.00016523 0 -1.92419e-05 -0.000165533 0 -1.67998e-05 -0.000165797 0 -1.43668e-05 -0.000166024 0 -1.19437e-05 -0.000166216 0 -9.53111e-06 -0.000166372 0 -7.1298e-06 -0.000166494 0 -4.74043e-06 -0.000166582 0 -2.36362e-06 -0.000166637 0 0 -0.000166658 0 -0.000167606 0 0 -0.000167585 -2.37702e-06 0 -0.000167531 -4.76733e-06 0 -0.000167443 -7.1703e-06 0 -0.000167321 -9.58529e-06 0 -0.000167164 -1.20116e-05 0 -0.000166971 -1.44486e-05 0 -0.000166743 -1.68955e-05 0 -0.000166476 -1.93516e-05 0 -0.000166172 -2.18161e-05 0 -0.000165829 -2.42882e-05 0 -0.000165447 -2.67672e-05 0 -0.000165026 -2.92522e-05 0 -0.000164565 -3.17423e-05 0 -0.000164064 -3.42367e-05 0 -0.000163522 -3.67345e-05 0 -0.00016294 -3.92348e-05 0 -0.000162317 -4.17366e-05 0 -0.000161653 -4.42392e-05 0 -0.000160948 -4.67413e-05 0 -0.0001602 -4.92422e-05 0 -0.000159411 -5.17408e-05 0 -0.000158579 -5.4236e-05 0 -0.000157706 -5.6727e-05 0 -0.000156789 -5.92126e-05 0 -0.00015583 -6.16918e-05 0 -0.000154829 -6.41636e-05 0 -0.000153785 -6.66269e-05 0 -0.000152699 -6.90807e-05 0 -0.00015157 -7.15239e-05 0 -0.000150398 -7.39554e-05 0 -0.000149184 -7.63741e-05 0 -0.000147929 -7.87791e-05 0 -0.000146631 -8.11691e-05 0 -0.000145291 -8.35431e-05 0 -0.00014391 -8.59001e-05 0 -0.000142488 -8.8239e-05 0 -0.000141025 -9.05587e-05 0 -0.000139522 -9.28583e-05 0 -0.000137978 -9.51365e-05 0 -0.000136395 -9.73925e-05 0 -0.000134773 -9.96251e-05 0 -0.000133113 -0.000101833 0 -0.000131414 -0.000104016 0 -0.000129677 -0.000106173 0 -0.000127904 -0.000108303 0 -0.000126095 -0.000110404 0 -0.00012425 -0.000112476 0 -0.00012237 -0.000114518 0 -0.000120457 -0.00011653 0 -0.000118509 -0.000118509 0 -0.00011653 -0.000120457 0 -0.000114518 -0.00012237 0 -0.000112476 -0.00012425 0 -0.000110404 -0.000126095 0 -0.000108303 -0.000127904 0 -0.000106173 -0.000129677 0 -0.000104016 -0.000131414 0 -0.000101833 -0.000133113 0 -9.96251e-05 -0.000134773 0 -9.73925e-05 -0.000136395 0 -9.51365e-05 -0.000137978 0 -9.28583e-05 -0.000139522 0 -9.05587e-05 -0.000141025 0 -8.8239e-05 -0.000142488 0 -8.59001e-05 -0.00014391 0 -8.35431e-05 -0.000145291 0 -8.11691e-05 -0.000146631 0 -7.87791e-05 -0.000147929 0 -7.63741e-05 -0.000149184 0 -7.39554e-05 -0.000150398 0 -7.15239e-05 -0.00015157 0 -6.90807e-05 -0.000152699 0 -6.66269e-05 -0.000153785 0 -6.41636e-05 -0.000154829 0 -6.16918e-05 -0.00015583 0 -5.92126e-05 -0.000156789 0 -5.6727e-05 -0.000157706 0 -5.4236e-05 -0.000158579 0 -5.17408e-05 -0.000159411 0 -4.92422e-05 -0.0001602 0 -4.67413e-05 -0.000160948 0 -4.42392e-05 -0.000161653 0 -4.17366e-05 -0.000162317 0 -3.92348e-05 -0.00016294 0 -3.67345e-05 -0.000163522 0 -3.42367e-05 -0.000164064 0 -3.17423e-05 -0.000164565 0 -2.92522e-05 -0.000165026 0 -2.67672e-05 -0.000165447 0 -2.42882e-05 -0.000165829 0 -2.18161e-05 -0.000166172 0 -1.93516e-05 -0.000166476 0 -1.68955e-05 -0.000166743 0 -1.44486e-05 -0.000166971 0 -1.20116e-05 -0.000167164 0 -9.58529e-06 -0.000167321 0 -7.1703e-06 -0.000167443 0 -4.76733e-06 -0.000167531 0 -2.37702e-06 -0.000167585 0 0 -0.000167606 0 -0.000168862 0 0 -0.000168842 -2.39482e-06 0 -0.000168788 -4.80303e-06 0 -0.0001687 -7.22402e-06 0 -0.000168577 -9.65712e-06 0 -0.000168418 -1.21017e-05 0 -0.000168224 -1.4557e-05 0 -0.000167994 -1.70223e-05 0 -0.000167725 -1.94968e-05 0 -0.000167419 -2.19798e-05 0 -0.000167073 -2.44705e-05 0 -0.000166688 -2.69681e-05 0 -0.000166264 -2.94717e-05 0 -0.000165799 -3.19804e-05 0 -0.000165295 -3.44935e-05 0 -0.000164749 -3.70101e-05 0 -0.000164163 -3.95291e-05 0 -0.000163535 -4.20498e-05 0 -0.000162866 -4.45711e-05 0 -0.000162155 -4.7092e-05 0 -0.000161402 -4.96116e-05 0 -0.000160607 -5.2129e-05 0 -0.000159769 -5.46429e-05 0 -0.000158889 -5.71526e-05 0 -0.000157966 -5.96568e-05 0 -0.000157 -6.21547e-05 0 -0.000155991 -6.4645e-05 0 -0.000154939 -6.71268e-05 0 -0.000153844 -6.9599e-05 0 -0.000152707 -7.20605e-05 0 -0.000151526 -7.45102e-05 0 -0.000150304 -7.69471e-05 0 -0.000149038 -7.93701e-05 0 -0.000147731 -8.1778e-05 0 -0.000146381 -8.41699e-05 0 -0.00014499 -8.65446e-05 0 -0.000143557 -8.8901e-05 0 -0.000142083 -9.12382e-05 0 -0.000140569 -9.35549e-05 0 -0.000139014 -9.58503e-05 0 -0.000137419 -9.81231e-05 0 -0.000135784 -0.000100373 0 -0.000134111 -0.000102597 0 -0.0001324 -0.000104797 0 -0.00013065 -0.00010697 0 -0.000128864 -0.000109115 0 -0.000127041 -0.000111232 0 -0.000125182 -0.00011332 0 -0.000123288 -0.000115378 0 -0.00012136 -0.000117404 0 -0.000119399 -0.000119399 0 -0.000117404 -0.00012136 0 -0.000115378 -0.000123288 0 -0.00011332 -0.000125182 0 -0.000111232 -0.000127041 0 -0.000109115 -0.000128864 0 -0.00010697 -0.00013065 0 -0.000104797 -0.0001324 0 -0.000102597 -0.000134111 0 -0.000100373 -0.000135784 0 -9.81231e-05 -0.000137419 0 -9.58503e-05 -0.000139014 0 -9.35549e-05 -0.000140569 0 -9.12382e-05 -0.000142083 0 -8.8901e-05 -0.000143557 0 -8.65446e-05 -0.00014499 0 -8.41699e-05 -0.000146381 0 -8.1778e-05 -0.000147731 0 -7.93701e-05 -0.000149038 0 -7.69471e-05 -0.000150304 0 -7.45102e-05 -0.00