<?xml version="1.0"?> 
<VTKFile type="StructuredGrid" version="0.1"> 
<StructuredGrid WholeExtent="0 100 0 100 0 0"> 
<Piece Extent="0 100 0 100 0 0"> 
<PointData Scalars="Stress components">
<DataArray type="Float32" Name="sigma_xx" format="ascii" NumberOfComponents="1"> 
-0.162593 -0.1639 -0.16575 -0.16815 -0.171108 -0.174629 -0.17872 -0.183717 -0.189688 -0.196569 -0.204369 -0.213092 -0.222743 -0.233243 -0.244537 -0.256686 -0.26969 -0.283545 -0.298246 -0.313802 -0.330241 -0.347524 -0.365641 -0.384581 -0.40433 -0.424876 -0.446185 -0.468252 -0.491061 -0.514589 -0.538816 -0.563719 -0.589277 -0.615462 -0.642247 -0.669604 -0.697503 -0.725914 -0.754804 -0.784141 -0.813892 -0.844022 -0.874495 -0.905276 -0.936327 -0.967611 -0.99909 -1.03073 -1.06248 -1.09431 -1.12618 -1.15806 -1.18989 -1.22164 -1.25328 -1.28476 -1.31604 -1.34709 -1.37787 -1.40835 -1.43848 -1.46823 -1.49756 -1.52645 -1.55486 -1.58276 -1.61012 -1.6369 -1.66309 -1.68865 -1.71355 -1.73778 -1.76131 -1.78411 -1.80618 -1.82748 -1.84802 -1.86777 -1.88671 -1.90484 -1.92214 -1.9386 -1.95418 -1.96888 -1.98272 -1.99569 -2.00778 -2.01899 -2.02939 -2.03901 -2.04778 -2.05572 -2.06283 -2.06912 -2.07452 -2.07886 -2.08226 -2.08473 -2.08629 -2.08695 -2.08672 -0.19584 -0.196918 -0.198482 -0.200539 -0.203095 -0.206156 -0.209726 -0.214116 -0.219361 -0.2254 -0.232239 -0.239883 -0.248337 -0.257523 -0.267397 -0.278019 -0.28939 -0.301507 -0.314365 -0.327972 -0.342357 -0.35748 -0.373332 -0.389904 -0.407184 -0.42516 -0.443803 -0.463109 -0.483063 -0.503647 -0.524843 -0.54663 -0.56899 -0.591899 -0.615333 -0.639268 -0.663676 -0.688533 -0.713809 -0.739476 -0.765504 -0.791864 -0.818525 -0.845455 -0.872621 -0.899992 -0.927533 -0.955211 -0.982991 -1.01084 -1.03873 -1.06661 -1.09446 -1.12224 -1.14992 -1.17746 -1.20483 -1.232 -1.25893 -1.28559 -1.31195 -1.33798 -1.36364 -1.38892 -1.41377 -1.43818 -1.46212 -1.48555 -1.50846 -1.53082 -1.55261 -1.57381 -1.59439 -1.61435 -1.63365 -1.6523 -1.67026 -1.68753 -1.7041 -1.71995 -1.73508 -1.74947 -1.76311 -1.776 -1.78813 -1.7995 -1.8101 -1.81993 -1.82901 -1.83737 -1.84499 -1.85187 -1.85803 -1.86347 -1.86817 -1.87206 -1.87513 -1.8774 -1.87887 -1.87956 -1.87948 -0.25167 -0.252558 -0.253882 -0.255646 -0.257858 -0.260522 -0.263643 -0.267499 -0.272104 -0.277402 -0.283398 -0.290095 -0.297497 -0.305534 -0.314167 -0.323456 -0.333401 -0.343998 -0.355245 -0.36715 -0.379737 -0.392971 -0.406842 -0.421343 -0.436463 -0.452192 -0.468502 -0.485394 -0.502852 -0.520862 -0.539406 -0.558468 -0.578032 -0.598077 -0.618581 -0.639522 -0.660878 -0.682627 -0.704742 -0.727199 -0.749972 -0.773036 -0.796363 -0.819925 -0.843694 -0.867641 -0.891738 -0.915955 -0.940262 -0.964629 -0.989026 -1.01342 -1.03779 -1.0621 -1.08631 -1.11041 -1.13436 -1.15813 -1.18169 -1.20502 -1.22808 -1.25085 -1.27331 -1.29543 -1.31717 -1.33853 -1.35947 -1.37997 -1.40002 -1.41958 -1.43865 -1.4572 -1.47521 -1.49267 -1.50956 -1.52587 -1.54159 -1.55669 -1.57118 -1.58505 -1.59828 -1.61087 -1.62281 -1.63411 -1.64473 -1.65469 -1.66399 -1.67261 -1.68054 -1.68781 -1.69443 -1.70042 -1.70576 -1.71047 -1.71457 -1.71804 -1.7208 -1.72286 -1.72423 -1.72491 -1.72493 -0.32528 -0.32601 -0.327129 -0.328642 -0.330555 -0.332872 -0.335599 -0.338979 -0.343013 -0.34765 -0.352893 -0.358747 -0.365213 -0.372229 -0.379764 -0.387872 -0.396552 -0.405804 -0.415623 -0.426018 -0.437011 -0.448568 -0.460682 -0.473345 -0.486549 -0.500285 -0.514527 -0.529276 -0.544521 -0.560247 -0.57644 -0.593085 -0.610169 -0.627672 -0.645577 -0.663863 -0.682512 -0.701503 -0.720815 -0.740425 -0.760311 -0.780451 -0.80082 -0.821395 -0.842151 -0.863062 -0.884104 -0.905251 -0.926476 -0.947754 -0.969058 -0.990362 -1.01164 -1.03287 -1.05401 -1.07505 -1.09597 -1.11672 -1.1373 -1.15767 -1.17781 -1.19769 -1.2173 -1.23661 -1.2556 -1.27425 -1.29254 -1.31044 -1.32794 -1.34503 -1.36168 -1.37788 -1.39361 -1.40885 -1.42361 -1.43785 -1.45157 -1.46476 -1.47741 -1.48951 -1.50106 -1.51205 -1.52249 -1.53236 -1.54165 -1.55036 -1.55848 -1.56602 -1.57295 -1.57926 -1.58502 -1.59021 -1.59485 -1.59893 -1.60249 -1.60557 -1.60803 -1.60988 -1.61113 -1.61179 -1.61188 -0.413142 -0.413738 -0.414681 -0.415975 -0.417625 -0.419637 -0.422013 -0.424963 -0.428481 -0.43252 -0.437085 -0.442178 -0.447802 -0.453901 -0.46045 -0.467498 -0.475045 -0.48309 -0.491628 -0.500668 -0.510229 -0.52028 -0.530815 -0.541828 -0.553311 -0.565257 -0.577642 -0.590468 -0.603725 -0.617401 -0.631483 -0.645958 -0.660815 -0.676037 -0.691607 -0.70751 -0.723728 -0.740243 -0.757037 -0.774091 -0.791384 -0.808899 -0.826613 -0.844505 -0.862555 -0.880741 -0.89904 -0.91743 -0.935888 -0.954392 -0.972919 -0.991446 -1.00995 -1.02841 -1.0468 -1.0651 -1.08328 -1.10133 -1.11923 -1.13694 -1.15445 -1.17175 -1.1888 -1.2056 -1.22211 -1.23833 -1.25423 -1.2698 -1.28502 -1.29988 -1.31436 -1.32844 -1.34212 -1.35538 -1.36821 -1.3806 -1.39253 -1.404 -1.415 -1.42552 -1.43556 -1.44511 -1.4542 -1.46279 -1.47087 -1.47845 -1.48553 -1.49209 -1.49811 -1.50359 -1.50857 -1.51307 -1.51708 -1.52061 -1.5237 -1.5264 -1.52857 -1.53021 -1.53134 -1.53196 -1.53207 -0.512602 -0.513084 -0.513874 -0.514975 -0.516393 -0.518131 -0.520193 -0.522751 -0.525797 -0.529291 -0.533236 -0.537637 -0.542493 -0.547759 -0.553415 -0.559504 -0.566023 -0.572973 -0.58035 -0.588161 -0.596422 -0.605106 -0.614209 -0.623724 -0.633645 -0.643965 -0.654665 -0.665747 -0.6772 -0.689015 -0.701182 -0.713688 -0.726523 -0.739675 -0.753127 -0.766867 -0.780878 -0.795147 -0.809657 -0.82439 -0.839332 -0.854463 -0.869768 -0.885226 -0.900821 -0.916533 -0.932342 -0.948231 -0.964178 -0.980165 -0.996172 -1.01218 -1.02817 -1.04411 -1.06 -1.07581 -1.09152 -1.10712 -1.12258 -1.13788 -1.15301 -1.16795 -1.18269 -1.1972 -1.21146 -1.22548 -1.23921 -1.25267 -1.26582 -1.27865 -1.29116 -1.30333 -1.31515 -1.32661 -1.3377 -1.3484 -1.3587 -1.36861 -1.37811 -1.3872 -1.39588 -1.40413 -1.41198 -1.4194 -1.42639 -1.43294 -1.43906 -1.44473 -1.44993 -1.45466 -1.45896 -1.46284 -1.46629 -1.46933 -1.472 -1.47434 -1.47622 -1.47766 -1.47865 -1.4792 -1.47933 -0.621625 -0.622011 -0.622666 -0.623597 -0.624806 -0.626298 -0.628076 -0.630274 -0.632883 -0.635875 -0.639251 -0.643014 -0.647165 -0.651668 -0.656507 -0.661717 -0.667297 -0.673245 -0.67956 -0.686246 -0.693316 -0.700748 -0.708537 -0.71668 -0.72517 -0.734002 -0.743158 -0.752642 -0.762443 -0.772555 -0.782967 -0.793669 -0.804654 -0.815909 -0.827421 -0.839179 -0.85117 -0.863382 -0.875799 -0.888407 -0.901194 -0.914144 -0.927241 -0.94047 -0.953816 -0.967262 -0.980792 -0.994389 -1.00804 -1.02172 -1.03542 -1.04911 -1.0628 -1.07644 -1.09004 -1.10357 -1.11702 -1.13036 -1.14359 -1.15669 -1.16964 -1.18243 -1.19504 -1.20745 -1.21966 -1.23165 -1.24341 -1.25492 -1.26617 -1.27716 -1.28787 -1.29828 -1.3084 -1.3182 -1.32769 -1.33685 -1.34567 -1.35415 -1.36228 -1.37006 -1.37748 -1.38454 -1.39126 -1.39761 -1.40359 -1.40919 -1.41443 -1.41928 -1.42373 -1.42779 -1.43147 -1.43479 -1.43775 -1.44035 -1.44263 -1.44462 -1.44623 -1.44746 -1.44831 -1.44879 -1.4489 -0.660342 -0.660678 -0.661261 -0.662096 -0.663187 -0.664537 -0.666148 -0.668123 -0.67046 -0.673138 -0.67616 -0.679528 -0.683243 -0.687278 -0.69162 -0.696295 -0.701302 -0.706639 -0.712305 -0.718304 -0.724644 -0.731309 -0.738294 -0.745597 -0.75321 -0.76113 -0.769343 -0.777849 -0.78664 -0.795709 -0.805047 -0.814646 -0.824498 -0.834592 -0.844917 -0.855463 -0.866217 -0.877169 -0.888306 -0.899614 -0.911082 -0.922696 -0.934443 -0.946308 -0.958278 -0.970337 -0.982471 -0.994666 -1.00691 -1.01918 -1.03146 -1.04375 -1.05602 -1.06826 -1.08045 -1.09259 -1.10465 -1.11662 -1.12848 -1.14023 -1.15184 -1.16331 -1.17462 -1.18576 -1.19671 -1.20746 -1.21801 -1.22833 -1.23843 -1.24828 -1.25788 -1.26722 -1.27629 -1.28508 -1.29359 -1.30181 -1.30972 -1.31732 -1.32462 -1.3316 -1.33826 -1.34459 -1.35061 -1.3563 -1.36166 -1.36668 -1.37137 -1.37572 -1.37972 -1.38337 -1.38669 -1.38968 -1.39234 -1.39469 -1.39673 -1.39849 -1.39991 -1.401 -1.40174 -1.40216 -1.40225 -0.677774 -0.678073 -0.678602 -0.679366 -0.680367 -0.68161 -0.683096 -0.684901 -0.687032 -0.689473 -0.692227 -0.695296 -0.698682 -0.702363 -0.706331 -0.710602 -0.715177 -0.720053 -0.725229 -0.730708 -0.736497 -0.742582 -0.748961 -0.755628 -0.76258 -0.769812 -0.777312 -0.785079 -0.793107 -0.801388 -0.809916 -0.818681 -0.827678 -0.836895 -0.846324 -0.855953 -0.865774 -0.875775 -0.885944 -0.896271 -0.906743 -0.917348 -0.928075 -0.93891 -0.94984 -0.960852 -0.971933 -0.983069 -0.994246 -1.00545 -1.01667 -1.02789 -1.03909 -1.05027 -1.06141 -1.07249 -1.0835 -1.09443 -1.10526 -1.11599 -1.1266 -1.13707 -1.1474 -1.15757 -1.16757 -1.17739 -1.18701 -1.19644 -1.20566 -1.21466 -1.22342 -1.23195 -1.24024 -1.24827 -1.25603 -1.26353 -1.27076 -1.27771 -1.28437 -1.29075 -1.29683 -1.30261 -1.30811 -1.3133 -1.31819 -1.32277 -1.32705 -1.33102 -1.33467 -1.33801 -1.34105 -1.34379 -1.34624 -1.34839 -1.35026 -1.35185 -1.35313 -1.3541 -1.35477 -1.35514 -1.35521 -0.69904 -0.699302 -0.699778 -0.700473 -0.701389 -0.702529 -0.703896 -0.705545 -0.707487 -0.709712 -0.712222 -0.715018 -0.718102 -0.721459 -0.725081 -0.72898 -0.733156 -0.737607 -0.742332 -0.747332 -0.752613 -0.758165 -0.763984 -0.770067 -0.77641 -0.783007 -0.789851 -0.796938 -0.804263 -0.81182 -0.819601 -0.827599 -0.835807 -0.844217 -0.85282 -0.861607 -0.870567 -0.879692 -0.888971 -0.898393 -0.907948 -0.917625 -0.927413 -0.937299 -0.947271 -0.957319 -0.96743 -0.97759 -0.987789 -0.998013 -1.00825 -1.01849 -1.02871 -1.03891 -1.04907 -1.05918 -1.06923 -1.0792 -1.08909 -1.09887 -1.10855 -1.1181 -1.12753 -1.13681 -1.14593 -1.15489 -1.16368 -1.17228 -1.18069 -1.1889 -1.1969 -1.20468 -1.21224 -1.21956 -1.22665 -1.23349 -1.24009 -1.24643 -1.25251 -1.25833 -1.26388 -1.26916 -1.27417 -1.2789 -1.28336 -1.28754 -1.29144 -1.29506 -1.29839 -1.30145 -1.30423 -1.30674 -1.30898 -1.31094 -1.31265 -1.31409 -1.31524 -1.31612 -1.31672 -1.31705 -1.31711 -0.723593 -0.723819 -0.724244 -0.724872 -0.725706 -0.726748 -0.728001 -0.729506 -0.731275 -0.733301 -0.735586 -0.738132 -0.740938 -0.743996 -0.747297 -0.75085 -0.754656 -0.758712 -0.763018 -0.767575 -0.772386 -0.777444 -0.782745 -0.788287 -0.794065 -0.800076 -0.806312 -0.812769 -0.819443 -0.826328 -0.833417 -0.840704 -0.848183 -0.855846 -0.863684 -0.871689 -0.879853 -0.888167 -0.896621 -0.905205 -0.913911 -0.922728 -0.931645 -0.940652 -0.949738 -0.958893 -0.968104 -0.977362 -0.986654 -0.995969 -1.0053 -1.01462 -1.02394 -1.03323 -1.04249 -1.0517 -1.06085 -1.06994 -1.07895 -1.08786 -1.09668 -1.10538 -1.11397 -1.12242 -1.13074 -1.1389 -1.14691 -1.15474 -1.16241 -1.16989 -1.17717 -1.18426 -1.19115 -1.19782 -1.20428 -1.21052 -1.21652 -1.2223 -1.22784 -1.23314 -1.2382 -1.24301 -1.24758 -1.25189 -1.25595 -1.25975 -1.2633 -1.2666 -1.26964 -1.27243 -1.27497 -1.27726 -1.2793 -1.2811 -1.28265 -1.28395 -1.285 -1.28579 -1.28634 -1.28663 -1.28669 -0.75099 -0.751179 -0.751553 -0.752116 -0.75287 -0.753818 -0.754962 -0.756334 -0.757944 -0.759786 -0.761863 -0.764177 -0.766727 -0.769506 -0.772508 -0.775739 -0.779199 -0.782887 -0.786803 -0.790946 -0.79532 -0.799917 -0.804737 -0.809775 -0.815028 -0.820493 -0.826162 -0.832033 -0.8381 -0.84436 -0.850805 -0.85743 -0.864229 -0.871196 -0.878321 -0.885599 -0.893022 -0.90058 -0.908266 -0.916071 -0.923985 -0.932001 -0.940108 -0.948297 -0.956557 -0.96488 -0.973255 -0.981671 -0.990119 -0.998587 -1.00707 -1.01555 -1.02401 -1.03246 -1.04088 -1.04925 -1.05758 -1.06584 -1.07402 -1.08213 -1.09015 -1.09806 -1.10587 -1.11355 -1.12111 -1.12853 -1.13581 -1.14294 -1.1499 -1.1567 -1.16333 -1.16977 -1.17603 -1.1821 -1.18797 -1.19364 -1.1991 -1.20435 -1.20939 -1.21421 -1.21881 -1.22319 -1.22733 -1.23125 -1.23494 -1.2384 -1.24163 -1.24463 -1.24739 -1.24993 -1.25224 -1.25432 -1.25618 -1.25781 -1.25922 -1.2604 -1.26135 -1.26207 -1.26257 -1.26285 -1.2629 -0.780859 -0.781012 -0.781337 -0.781837 -0.782514 -0.78337 -0.784409 -0.785656 -0.787118 -0.78879 -0.790675 -0.792773 -0.795085 -0.797604 -0.800325 -0.803254 -0.806391 -0.809734 -0.813283 -0.817039 -0.821003 -0.825171 -0.82954 -0.834107 -0.838869 -0.843822 -0.848961 -0.854283 -0.859784 -0.865458 -0.871301 -0.877306 -0.883469 -0.889784 -0.896244 -0.902841 -0.909569 -0.916421 -0.923388 -0.930463 -0.937637 -0.944903 -0.952252 -0.959675 -0.967164 -0.974708 -0.9823 -0.989929 -0.997587 -1.00526 -1.01295 -1.02064 -1.02831 -1.03597 -1.0436 -1.05119 -1.05874 -1.06622 -1.07365 -1.081 -1.08826 -1.09544 -1.10251 -1.10948 -1.11633 -1.12306 -1.12965 -1.13611 -1.14243 -1.14859 -1.1546 -1.16044 -1.16612 -1.17162 -1.17694 -1.18208 -1.18703 -1.19179 -1.19635 -1.20072 -1.20489 -1.20886 -1.21262 -1.21617 -1.21952 -1.22266 -1.22558 -1.2283 -1.2308 -1.2331 -1.23519 -1.23708 -1.23876 -1.24024 -1.24152 -1.24259 -1.24345 -1.24411 -1.24457 -1.24482 -1.24488 -0.801209 -0.801338 -0.801628 -0.802079 -0.802695 -0.803478 -0.80443 -0.805576 -0.80692 -0.808456 -0.810186 -0.812111 -0.814233 -0.816543 -0.819038 -0.821725 -0.824601 -0.827667 -0.830923 -0.834367 -0.838004 -0.841826 -0.845833 -0.850022 -0.85439 -0.858933 -0.863647 -0.868528 -0.873573 -0.878777 -0.884136 -0.889644 -0.895297 -0.901089 -0.907014 -0.913065 -0.919236 -0.92552 -0.93191 -0.938399 -0.94498 -0.951644 -0.958385 -0.965193 -0.972061 -0.978981 -0.985944 -0.992941 -0.999965 -1.00701 -1.01406 -1.02111 -1.02815 -1.03517 -1.04217 -1.04913 -1.05605 -1.06292 -1.06973 -1.07647 -1.08313 -1.08971 -1.0962 -1.10259 -1.10888 -1.11505 -1.1211 -1.12702 -1.13281 -1.13847 -1.14398 -1.14934 -1.15454 -1.15959 -1.16447 -1.16918 -1.17372 -1.17809 -1.18227 -1.18628 -1.1901 -1.19374 -1.19719 -1.20045 -1.20352 -1.2064 -1.20909 -1.21158 -1.21387 -1.21598 -1.2179 -1.21962 -1.22116 -1.22251 -1.22368 -1.22467 -1.22547 -1.22608 -1.2265 -1.22674 -1.22681 -0.811484 -0.811604 -0.811872 -0.812291 -0.812864 -0.813591 -0.814476 -0.815543 -0.816794 -0.818223 -0.819833 -0.821625 -0.823598 -0.825747 -0.828067 -0.830565 -0.833241 -0.836093 -0.839121 -0.842325 -0.845708 -0.849264 -0.852991 -0.856888 -0.86095 -0.865177 -0.869561 -0.874101 -0.878794 -0.883635 -0.88862 -0.893744 -0.899002 -0.90439 -0.909901 -0.915529 -0.92127 -0.927115 -0.933059 -0.939095 -0.945217 -0.951416 -0.957686 -0.964019 -0.970407 -0.976844 -0.983321 -0.98983 -0.996363 -1.00291 -1.00947 -1.01603 -1.02258 -1.02911 -1.03562 -1.0421 -1.04853 -1.05492 -1.06126 -1.06753 -1.07372 -1.07985 -1.08588 -1.09183 -1.09767 -1.10341 -1.10904 -1.11455 -1.11994 -1.1252 -1.13032 -1.13531 -1.14015 -1.14484 -1.14938 -1.15377 -1.15799 -1.16205 -1.16594 -1.16967 -1.17323 -1.17661 -1.17982 -1.18285 -1.18571 -1.18839 -1.19089 -1.19321 -1.19535 -1.1973 -1.19908 -1.20068 -1.20211 -1.20337 -1.20446 -1.20538 -1.20612 -1.20669 -1.20709 -1.20732 -1.20739 -0.82309 -0.823201 -0.82345 -0.823839 -0.824371 -0.825047 -0.825869 -0.826862 -0.828025 -0.829354 -0.830851 -0.832516 -0.83435 -0.836346 -0.838503 -0.840824 -0.84331 -0.845961 -0.848776 -0.851754 -0.854898 -0.858204 -0.861668 -0.86529 -0.869066 -0.872994 -0.877068 -0.881289 -0.88565 -0.89015 -0.894783 -0.899545 -0.904433 -0.90944 -0.914562 -0.919794 -0.925129 -0.930562 -0.936086 -0.941697 -0.947386 -0.953148 -0.958975 -0.964861 -0.970799 -0.976782 -0.982802 -0.988852 -0.994924 -1.00101 -1.00711 -1.0132 -1.01929 -1.02536 -1.03141 -1.03743 -1.04341 -1.04935 -1.05524 -1.06106 -1.06683 -1.07252 -1.07813 -1.08365 -1.08908 -1.09442 -1.09965 -1.10477 -1.10978 -1.11467 -1.11943 -1.12406 -1.12856 -1.13293 -1.13715 -1.14122 -1.14515 -1.14892 -1.15254 -1.156 -1.15931 -1.16245 -1.16544 -1.16826 -1.17091 -1.1734 -1.17573 -1.17788 -1.17987 -1.18169 -1.18334 -1.18483 -1.18615 -1.18732 -1.18833 -1.18918 -1.18988 -1.19041 -1.19079 -1.191 -1.19107 -0.835879 -0.835982 -0.836213 -0.836575 -0.837069 -0.837697 -0.838461 -0.839383 -0.840463 -0.841697 -0.843087 -0.844632 -0.846334 -0.848188 -0.850189 -0.852344 -0.854652 -0.857113 -0.859726 -0.862491 -0.865411 -0.868479 -0.871696 -0.875058 -0.878563 -0.88221 -0.885993 -0.889911 -0.89396 -0.898137 -0.902438 -0.90686 -0.911397 -0.916046 -0.920801 -0.925658 -0.930611 -0.935655 -0.940784 -0.945992 -0.951274 -0.956623 -0.962033 -0.967498 -0.973011 -0.978565 -0.984154 -0.98977 -0.995408 -1.00106 -1.00672 -1.01238 -1.01803 -1.02366 -1.02928 -1.03487 -1.04042 -1.04594 -1.0514 -1.05681 -1.06216 -1.06744 -1.07265 -1.07778 -1.08282 -1.08778 -1.09263 -1.09739 -1.10204 -1.10657 -1.111 -1.1153 -1.11948 -1.12353 -1.12744 -1.13123 -1.13487 -1.13837 -1.14173 -1.14495 -1.14802 -1.15094 -1.15371 -1.15633 -1.15879 -1.1611 -1.16326 -1.16527 -1.16711 -1.16879 -1.17033 -1.17171 -1.17294 -1.17402 -1.17495 -1.17575 -1.1764 -1.1769 -1.17724 -1.17745 -1.17751 -0.849725 -0.849821 -0.850036 -0.850372 -0.850831 -0.851414 -0.852123 -0.852978 -0.853979 -0.855123 -0.856411 -0.857843 -0.859421 -0.861138 -0.862992 -0.86499 -0.867129 -0.869411 -0.871833 -0.874397 -0.877103 -0.879948 -0.88293 -0.886047 -0.889296 -0.892676 -0.896183 -0.899814 -0.903568 -0.90744 -0.911427 -0.915526 -0.919732 -0.924042 -0.92845 -0.932952 -0.937543 -0.942219 -0.946974 -0.951802 -0.956698 -0.961656 -0.966672 -0.971737 -0.976847 -0.981996 -0.987177 -0.992383 -0.997609 -1.00285 -1.00809 -1.01334 -1.01858 -1.0238 -1.02901 -1.03419 -1.03934 -1.04445 -1.04951 -1.05453 -1.05949 -1.06438 -1.06921 -1.07397 -1.07864 -1.08323 -1.08774 -1.09214 -1.09645 -1.10066 -1.10476 -1.10875 -1.11262 -1.11637 -1.12001 -1.12351 -1.12689 -1.13014 -1.13325 -1.13623 -1.13908 -1.14178 -1.14435 -1.14678 -1.14906 -1.15121 -1.15321 -1.15507 -1.15678 -1.15834 -1.15976 -1.16104 -1.16218 -1.16318 -1.16405 -1.16479 -1.16539 -1.16585 -1.16617 -1.16636 -1.16641 -0.864518 -0.864608 -0.864809 -0.865121 -0.865547 -0.866087 -0.866744 -0.867536 -0.868462 -0.869521 -0.870712 -0.872036 -0.873494 -0.875082 -0.876798 -0.878646 -0.880625 -0.882736 -0.884978 -0.887351 -0.889855 -0.892487 -0.895246 -0.89813 -0.901136 -0.904264 -0.907508 -0.910868 -0.914341 -0.917924 -0.921613 -0.925405 -0.929297 -0.933284 -0.937363 -0.941528 -0.945776 -0.950102 -0.954501 -0.958969 -0.963499 -0.968087 -0.972727 -0.977414 -0.982142 -0.986905 -0.991699 -0.996516 -1.00135 -1.0062 -1.01105 -1.0159 -1.02075 -1.02559 -1.0304 -1.0352 -1.03996 -1.04469 -1.04938 -1.05402 -1.0586 -1.06313 -1.0676 -1.072 -1.07633 -1.08057 -1.08474 -1.08882 -1.0928 -1.0967 -1.10049 -1.10418 -1.10776 -1.11124 -1.1146 -1.11784 -1.12097 -1.12397 -1.12685 -1.12961 -1.13224 -1.13474 -1.13712 -1.13937 -1.14148 -1.14347 -1.14532 -1.14704 -1.14862 -1.15006 -1.15138 -1.15256 -1.15362 -1.15454 -1.15535 -1.15603 -1.15658 -1.15701 -1.15731 -1.15748 -1.15753 -0.877414 -0.877499 -0.877686 -0.877977 -0.878373 -0.878877 -0.879488 -0.880224 -0.881083 -0.882065 -0.88317 -0.884399 -0.885752 -0.887226 -0.888818 -0.890534 -0.892372 -0.894332 -0.896414 -0.898617 -0.900942 -0.903386 -0.905947 -0.908625 -0.911416 -0.914319 -0.917331 -0.920451 -0.923675 -0.927001 -0.930426 -0.933947 -0.937561 -0.941262 -0.945049 -0.948917 -0.952861 -0.956877 -0.960961 -0.965109 -0.969314 -0.973574 -0.977882 -0.982233 -0.986623 -0.991046 -0.995496 -0.999969 -1.00446 -1.00896 -1.01346 -1.01797 -1.02247 -1.02696 -1.03143 -1.03588 -1.0403 -1.04469 -1.04904 -1.05335 -1.05761 -1.06182 -1.06597 -1.07005 -1.07407 -1.07801 -1.08188 -1.08566 -1.08937 -1.09298 -1.0965 -1.09993 -1.10325 -1.10648 -1.1096 -1.11261 -1.11551 -1.1183 -1.12098 -1.12354 -1.12598 -1.1283 -1.13051 -1.13259 -1.13456 -1.1364 -1.13812 -1.13971 -1.14118 -1.14253 -1.14375 -1.14485 -1.14583 -1.14669 -1.14743 -1.14807 -1.14858 -1.14897 -1.14925 -1.14941 -1.14945 -0.882735 -0.882813 -0.882988 -0.883262 -0.883636 -0.884112 -0.884691 -0.885385 -0.886196 -0.887122 -0.888164 -0.889323 -0.890599 -0.891989 -0.893492 -0.895111 -0.896845 -0.898695 -0.900659 -0.902738 -0.904931 -0.907237 -0.909654 -0.912179 -0.914813 -0.917552 -0.920394 -0.923337 -0.926379 -0.929518 -0.932749 -0.936071 -0.93948 -0.942973 -0.946545 -0.950194 -0.953915 -0.957705 -0.961558 -0.965471 -0.969439 -0.973458 -0.977523 -0.981628 -0.98577 -0.989942 -0.994141 -0.998361 -1.0026 -1.00684 -1.01109 -1.01534 -1.01959 -1.02383 -1.02804 -1.03224 -1.03642 -1.04056 -1.04466 -1.04873 -1.05275 -1.05671 -1.06063 -1.06448 -1.06827 -1.07199 -1.07564 -1.07921 -1.08271 -1.08611 -1.08944 -1.09267 -1.09581 -1.09885 -1.10179 -1.10464 -1.10737 -1.11001 -1.11253 -1.11495 -1.11725 -1.11944 -1.12153 -1.12349 -1.12534 -1.12708 -1.1287 -1.1302 -1.13159 -1.13286 -1.13401 -1.13505 -1.13598 -1.13679 -1.1375 -1.13809 -1.13857 -1.13894 -1.1392 -1.13935 -1.13939 -0.888618 -0.888689 -0.888853 -0.88911 -0.889463 -0.889912 -0.890459 -0.891114 -0.891878 -0.892752 -0.893734 -0.894826 -0.896029 -0.89734 -0.898758 -0.900285 -0.90192 -0.903665 -0.905517 -0.907478 -0.909546 -0.91172 -0.913999 -0.916381 -0.918864 -0.921447 -0.924127 -0.926902 -0.929771 -0.932731 -0.935778 -0.938911 -0.942125 -0.945419 -0.948788 -0.952229 -0.955738 -0.959311 -0.962945 -0.966635 -0.970377 -0.974167 -0.978 -0.981871 -0.985777 -0.989712 -0.993671 -0.997651 -1.00164 -1.00565 -1.00966 -1.01367 -1.01767 -1.02166 -1.02564 -1.0296 -1.03354 -1.03744 -1.04131 -1.04515 -1.04894 -1.05268 -1.05637 -1.06 -1.06358 -1.06709 -1.07053 -1.0739 -1.07719 -1.0804 -1.08354 -1.08658 -1.08954 -1.09241 -1.09519 -1.09787 -1.10045 -1.10293 -1.10531 -1.10759 -1.10977 -1.11183 -1.1138 -1.11565 -1.1174 -1.11903 -1.12056 -1.12198 -1.12329 -1.12448 -1.12557 -1.12655 -1.12743 -1.1282 -1.12886 -1.12942 -1.12987 -1.13022 -1.13046 -1.1306 -1.13064 -0.895011 -0.895076 -0.895228 -0.89547 -0.895802 -0.896225 -0.896742 -0.897359 -0.89808 -0.898902 -0.899828 -0.900857 -0.90199 -0.903226 -0.904562 -0.906001 -0.907543 -0.909187 -0.910933 -0.91278 -0.914729 -0.916778 -0.918925 -0.921169 -0.92351 -0.925944 -0.928469 -0.931085 -0.933789 -0.936578 -0.939449 -0.942401 -0.945431 -0.948535 -0.95171 -0.954952 -0.958259 -0.961627 -0.965051 -0.968528 -0.972055 -0.975626 -0.979238 -0.982887 -0.986567 -0.990275 -0.994007 -0.997756 -1.00152 -1.00529 -1.00907 -1.01285 -1.01662 -1.02039 -1.02414 -1.02787 -1.03158 -1.03526 -1.0389 -1.04252 -1.04609 -1.04961 -1.05309 -1.05652 -1.05988 -1.06319 -1.06643 -1.06961 -1.07271 -1.07574 -1.07869 -1.08156 -1.08435 -1.08706 -1.08967 -1.0922 -1.09463 -1.09697 -1.09922 -1.10136 -1.10341 -1.10536 -1.10721 -1.10896 -1.1106 -1.11214 -1.11358 -1.11492 -1.11615 -1.11728 -1.11831 -1.11923 -1.12006 -1.12078 -1.12141 -1.12193 -1.12236 -1.12269 -1.12292 -1.12305 -1.12309 -0.901869 -0.901928 -0.90207 -0.902296 -0.902608 -0.903007 -0.903493 -0.904075 -0.904754 -0.905528 -0.9064 -0.907369 -0.908436 -0.909599 -0.910858 -0.912213 -0.913665 -0.915213 -0.916856 -0.918596 -0.920431 -0.922359 -0.924381 -0.926494 -0.928698 -0.93099 -0.933368 -0.935831 -0.938377 -0.941003 -0.943707 -0.946486 -0.949339 -0.952261 -0.95525 -0.958303 -0.961417 -0.964588 -0.967812 -0.971086 -0.974407 -0.977769 -0.98117 -0.984606 -0.988071 -0.991563 -0.995076 -0.998607 -1.00215 -1.0057 -1.00926 -1.01282 -1.01637 -1.01991 -1.02344 -1.02696 -1.03045 -1.03391 -1.03735 -1.04075 -1.04411 -1.04743 -1.05071 -1.05393 -1.0571 -1.06022 -1.06327 -1.06626 -1.06918 -1.07203 -1.07481 -1.07752 -1.08014 -1.08269 -1.08515 -1.08753 -1.08982 -1.09203 -1.09414 -1.09616 -1.09809 -1.09992 -1.10167 -1.10331 -1.10486 -1.10631 -1.10766 -1.10892 -1.11008 -1.11115 -1.11211 -1.11299 -1.11376 -1.11444 -1.11503 -1.11553 -1.11593 -1.11624 -1.11645 -1.11658 -1.11661 -0.909154 -0.909206 -0.909337 -0.909548 -0.909841 -0.910216 -0.910674 -0.911221 -0.91186 -0.912589 -0.913409 -0.914321 -0.915324 -0.916419 -0.917602 -0.918877 -0.920243 -0.921699 -0.923245 -0.92488 -0.926606 -0.928421 -0.930322 -0.93231 -0.934382 -0.936538 -0.938775 -0.941092 -0.943486 -0.945956 -0.9485 -0.951114 -0.953797 -0.956546 -0.959357 -0.962229 -0.965158 -0.96814 -0.971173 -0.974252 -0.977376 -0.980538 -0.983737 -0.986969 -0.990228 -0.993512 -0.996817 -1.00014 -1.00347 -1.00681 -1.01016 -1.0135 -1.01685 -1.02018 -1.0235 -1.0268 -1.03009 -1.03335 -1.03658 -1.03978 -1.04294 -1.04606 -1.04914 -1.05218 -1.05516 -1.05809 -1.06096 -1.06377 -1.06652 -1.0692 -1.07182 -1.07436 -1.07683 -1.07923 -1.08154 -1.08378 -1.08593 -1.08801 -1.08999 -1.0919 -1.09371 -1.09544 -1.09707 -1.09862 -1.10008 -1.10144 -1.10272 -1.1039 -1.10499 -1.10599 -1.1069 -1.10772 -1.10845 -1.10909 -1.10965 -1.11011 -1.11049 -1.11078 -1.11098 -1.1111 -1.11114 -0.916829 -0.916875 -0.916996 -0.917192 -0.917466 -0.917817 -0.918248 -0.918763 -0.919363 -0.920048 -0.920819 -0.921676 -0.922619 -0.923647 -0.924759 -0.925956 -0.927239 -0.928607 -0.930059 -0.931596 -0.933217 -0.934921 -0.936707 -0.938575 -0.940522 -0.942547 -0.944648 -0.946825 -0.949074 -0.951394 -0.953784 -0.95624 -0.95876 -0.961342 -0.963983 -0.966681 -0.969432 -0.972234 -0.975083 -0.977976 -0.98091 -0.983881 -0.986886 -0.989922 -0.992984 -0.996069 -0.999173 -1.00229 -1.00542 -1.00856 -1.01171 -1.01485 -1.01799 -1.02112 -1.02424 -1.02734 -1.03043 -1.03349 -1.03653 -1.03953 -1.0425 -1.04544 -1.04833 -1.05118 -1.05398 -1.05673 -1.05943 -1.06207 -1.06465 -1.06717 -1.06963 -1.07202 -1.07434 -1.07659 -1.07876 -1.08087 -1.08289 -1.08484 -1.0867 -1.08849 -1.09019 -1.09182 -1.09335 -1.09481 -1.09618 -1.09746 -1.09866 -1.09977 -1.10079 -1.10173 -1.10259 -1.10336 -1.10404 -1.10464 -1.10516 -1.1056 -1.10596 -1.10623 -1.10642 -1.10653 -1.10657 -0.920197 -0.920241 -0.920356 -0.920543 -0.920804 -0.921138 -0.921548 -0.922038 -0.92261 -0.923262 -0.923995 -0.924811 -0.925708 -0.926686 -0.927745 -0.928885 -0.930105 -0.931407 -0.932789 -0.934252 -0.935795 -0.937417 -0.939117 -0.940895 -0.942748 -0.944675 -0.946675 -0.948747 -0.950887 -0.953096 -0.95537 -0.957707 -0.960106 -0.962564 -0.965078 -0.967646 -0.970264 -0.972931 -0.975642 -0.978396 -0.981188 -0.984016 -0.986876 -0.989765 -0.99268 -0.995616 -0.998571 -1.00154 -1.00452 -1.00751 -1.0105 -1.01349 -1.01648 -1.01946 -1.02243 -1.02538 -1.02832 -1.03123 -1.03412 -1.03698 -1.03981 -1.0426 -1.04536 -1.04807 -1.05073 -1.05335 -1.05592 -1.05843 -1.06089 -1.06329 -1.06563 -1.0679 -1.07011 -1.07225 -1.07432 -1.07632 -1.07825 -1.0801 -1.08188 -1.08358 -1.0852 -1.08675 -1.08821 -1.08959 -1.0909 -1.09212 -1.09326 -1.09432 -1.09529 -1.09618 -1.097 -1.09773 -1.09838 -1.09896 -1.09945 -1.09987 -1.1002 -1.10046 -1.10065 -1.10076 -1.10079 -0.923844 -0.923886 -0.923996 -0.924174 -0.924422 -0.924741 -0.92513 -0.925597 -0.926141 -0.926761 -0.927459 -0.928235 -0.929088 -0.930019 -0.931026 -0.93211 -0.933272 -0.93451 -0.935825 -0.937217 -0.938685 -0.940228 -0.941846 -0.943537 -0.9453 -0.947134 -0.949036 -0.951007 -0.953044 -0.955145 -0.957308 -0.959532 -0.961815 -0.964153 -0.966545 -0.968987 -0.971479 -0.974016 -0.976596 -0.979215 -0.981872 -0.984562 -0.987284 -0.990032 -0.992805 -0.995599 -0.99841 -1.00123 -1.00407 -1.00691 -1.00976 -1.0126 -1.01545 -1.01828 -1.02111 -1.02392 -1.02671 -1.02949 -1.03223 -1.03495 -1.03765 -1.0403 -1.04292 -1.0455 -1.04804 -1.05053 -1.05297 -1.05536 -1.0577 -1.05998 -1.06221 -1.06437 -1.06647 -1.06851 -1.07048 -1.07238 -1.07422 -1.07598 -1.07767 -1.07929 -1.08083 -1.0823 -1.08369 -1.08501 -1.08625 -1.08741 -1.08849 -1.0895 -1.09043 -1.09128 -1.09205 -1.09275 -1.09337 -1.09391 -1.09439 -1.09478 -1.0951 -1.09535 -1.09553 -1.09563 -1.09566 -0.927749 -0.92779 -0.927894 -0.928064 -0.9283 -0.928603 -0.928974 -0.929417 -0.929934 -0.930524 -0.931188 -0.931925 -0.932737 -0.933622 -0.934579 -0.93561 -0.936715 -0.937893 -0.939143 -0.940467 -0.941863 -0.94333 -0.944869 -0.946476 -0.948153 -0.949897 -0.951706 -0.95358 -0.955517 -0.957515 -0.959572 -0.961687 -0.963857 -0.966081 -0.968355 -0.970678 -0.973047 -0.975459 -0.977913 -0.980404 -0.98293 -0.985488 -0.988076 -0.99069 -0.993326 -0.995983 -0.998656 -1.00134 -1.00404 -1.00674 -1.00945 -1.01215 -1.01486 -1.01755 -1.02024 -1.02291 -1.02557 -1.02821 -1.03082 -1.03341 -1.03597 -1.03849 -1.04098 -1.04344 -1.04585 -1.04822 -1.05054 -1.05282 -1.05504 -1.05721 -1.05932 -1.06138 -1.06338 -1.06532 -1.06719 -1.069 -1.07074 -1.07242 -1.07403 -1.07556 -1.07703 -1.07843 -1.07975 -1.081 -1.08218 -1.08329 -1.08432 -1.08528 -1.08616 -1.08697 -1.0877 -1.08837 -1.08896 -1.08947 -1.08992 -1.0903 -1.0906 -1.09084 -1.09101 -1.0911 -1.09113 -0.931893 -0.931932 -0.932032 -0.932193 -0.932418 -0.932706 -0.933058 -0.93348 -0.933971 -0.934532 -0.935162 -0.935863 -0.936635 -0.937475 -0.938385 -0.939365 -0.940414 -0.941534 -0.942722 -0.94398 -0.945307 -0.946702 -0.948163 -0.949691 -0.951285 -0.952942 -0.954661 -0.956442 -0.958283 -0.960181 -0.962137 -0.964146 -0.966209 -0.968322 -0.970483 -0.972691 -0.974942 -0.977235 -0.979566 -0.981934 -0.984334 -0.986766 -0.989225 -0.991709 -0.994215 -0.996739 -0.999279 -1.00183 -1.00439 -1.00696 -1.00954 -1.01211 -1.01468 -1.01724 -1.01979 -1.02233 -1.02486 -1.02736 -1.02985 -1.03231 -1.03474 -1.03714 -1.0395 -1.04184 -1.04413 -1.04638 -1.04859 -1.05075 -1.05286 -1.05492 -1.05693 -1.05889 -1.06079 -1.06263 -1.06441 -1.06613 -1.06779 -1.06938 -1.07091 -1.07237 -1.07376 -1.07509 -1.07635 -1.07754 -1.07866 -1.07971 -1.08069 -1.0816 -1.08244 -1.08321 -1.0839 -1.08453 -1.08509 -1.08559 -1.08601 -1.08637 -1.08666 -1.08688 -1.08704 -1.08713 -1.08716 -0.936259 -0.936296 -0.936391 -0.936545 -0.936758 -0.937032 -0.937366 -0.937767 -0.938233 -0.938766 -0.939364 -0.94003 -0.940762 -0.941561 -0.942424 -0.943355 -0.944351 -0.945414 -0.946543 -0.947738 -0.948998 -0.950322 -0.951711 -0.953162 -0.954675 -0.956248 -0.957881 -0.959572 -0.96132 -0.963123 -0.96498 -0.966889 -0.968847 -0.970854 -0.972906 -0.975003 -0.977141 -0.979318 -0.981532 -0.98378 -0.98606 -0.988369 -0.990704 -0.993063 -0.995443 -0.99784 -1.00025 -1.00268 -1.00511 -1.00755 -1.00999 -1.01243 -1.01487 -1.01731 -1.01973 -1.02214 -1.02454 -1.02692 -1.02928 -1.03161 -1.03392 -1.0362 -1.03845 -1.04067 -1.04284 -1.04498 -1.04708 -1.04913 -1.05114 -1.05309 -1.055 -1.05686 -1.05866 -1.06041 -1.0621 -1.06374 -1.06531 -1.06682 -1.06827 -1.06966 -1.07098 -1.07224 -1.07344 -1.07457 -1.07563 -1.07663 -1.07756 -1.07843 -1.07922 -1.07995 -1.08062 -1.08121 -1.08175 -1.08221 -1.08262 -1.08296 -1.08323 -1.08345 -1.0836 -1.08368 -1.08371 -0.940829 -0.940865 -0.940956 -0.941102 -0.941305 -0.941565 -0.941882 -0.942262 -0.942705 -0.94321 -0.943778 -0.944409 -0.945104 -0.945861 -0.946681 -0.947563 -0.948509 -0.949518 -0.950589 -0.951722 -0.952918 -0.954175 -0.955492 -0.956869 -0.958304 -0.959797 -0.961347 -0.962951 -0.96461 -0.966321 -0.968082 -0.969893 -0.971752 -0.973656 -0.975603 -0.977592 -0.979621 -0.981687 -0.98