<?xml version="1.0"?> 
<VTKFile type="StructuredGrid" version="0.1"> 
<StructuredGrid WholeExtent="0 100 0 100 0 0"> 
<Piece Extent="0 100 0 100 0 0"> 
<PointData Scalars="Temperature">
<DataArray type="Float32" Name="Temperature" format="ascii" NumberOfComponents="1"> 
1.24147 1.21031 1.17987 1.15013 1.12111 1.09278 1.06516 1.03824 1.01201 0.986472 0.961625 0.937464 0.913985 0.891185 0.86906 0.847607 0.826822 0.806701 0.78724 0.768437 0.750286 0.732784 0.715926 0.699709 0.684128 0.66918 0.65486 0.641164 0.628088 0.615628 0.60378 0.59254 0.581904 0.571868 0.562428 0.553581 0.545324 0.537652 0.530562 0.524052 0.518118 0.512758 0.507968 0.503748 0.500095 0.497007 0.494483 0.492521 0.49112 0.49028 0.49 0.49028 0.49112 0.492521 0.494483 0.497007 0.500095 0.503748 0.507968 0.512758 0.518118 0.524052 0.530562 0.537652 0.545324 0.553581 0.562428 0.571868 0.581904 0.59254 0.60378 0.615628 0.628088 0.641164 0.65486 0.66918 0.684128 0.699709 0.715926 0.732784 0.750286 0.768437 0.78724 0.806701 0.826822 0.847607 0.86906 0.891185 0.913985 0.937464 0.961625 0.986472 1.01201 1.03824 1.06516 1.09278 1.12111 1.15013 1.17987 1.21031 1.24147 1.21677 1.18637 1.15666 1.12763 1.09929 1.07163 1.04465 1.01835 0.992723 0.967767 0.94348 0.919859 0.896901 0.874604 0.852963 0.831976 0.81164 0.79195 0.772904 0.754498 0.736729 0.719592 0.703085 0.687203 0.671942 0.6573 0.643271 0.629852 0.617039 0.604829 0.593218 0.582202 0.571776 0.561938 0.552684 0.54401 0.535914 0.528392 0.52144 0.515056 0.509236 0.503979 0.499283 0.495144 0.49156 0.488532 0.486056 0.484131 0.482758 0.481934 0.481659 0.481934 0.482758 0.484131 0.486056 0.488532 0.49156 0.495144 0.499283 0.503979 0.509236 0.515056 0.52144 0.528392 0.535914 0.54401 0.552684 0.561938 0.571776 0.582202 0.593218 0.604829 0.617039 0.629852 0.643271 0.6573 0.671942 0.687203 0.703085 0.719592 0.736729 0.754498 0.772904 0.79195 0.81164 0.831976 0.852963 0.874604 0.896901 0.919859 0.94348 0.967767 0.992723 1.01835 1.04465 1.07163 1.09929 1.12763 1.15666 1.18637 1.21677 1.19231 1.16266 1.13367 1.10534 1.07768 1.05068 1.02433 0.998641 0.973606 0.949223 0.925489 0.902402 0.879959 0.858157 0.836995 0.816468 0.796575 0.777311 0.758675 0.740662 0.723271 0.706496 0.690335 0.674784 0.659841 0.6455 0.631759 0.618615 0.606063 0.5941 0.582723 0.571928 0.561712 0.55207 0.542999 0.534498 0.526561 0.519187 0.512371 0.506112 0.500407 0.495252 0.490647 0.486588 0.483075 0.480105 0.477677 0.47579 0.474443 0.473634 0.473365 0.473634 0.474443 0.47579 0.477677 0.480105 0.483075 0.486588 0.490647 0.495252 0.500407 0.506112 0.512371 0.519187 0.526561 0.534498 0.542999 0.55207 0.561712 0.571928 0.582723 0.5941 0.606063 0.618615 0.631759 0.6455 0.659841 0.674784 0.690335 0.706496 0.723271 0.740662 0.758675 0.777311 0.796575 0.816468 0.836995 0.858157 0.879959 0.902402 0.925489 0.949223 0.973606 0.998641 1.02433 1.05068 1.07768 1.10534 1.13367 1.16266 1.19231 1.1681 1.13918 1.1109 1.08327 1.05627 1.02991 1.00419 0.97911 0.95466 0.930841 0.907652 0.885091 0.863156 0.841845 0.821155 0.801083 0.781628 0.762785 0.744554 0.72693 0.709911 0.693494 0.677676 0.662453 0.647823 0.633782 0.620326 0.607453 0.59516 0.583442 0.572297 0.561721 0.551711 0.542264 0.533375 0.525044 0.517266 0.510038 0.503358 0.497223 0.49163 0.486577 0.482062 0.478084 0.474639 0.471727 0.469347 0.467496 0.466176 0.465383 0.465119 0.465383 0.466176 0.467496 0.469347 0.471727 0.474639 0.478084 0.482062 0.486577 0.49163 0.497223 0.503358 0.510038 0.517266 0.525044 0.533375 0.542264 0.551711 0.561721 0.572297 0.583442 0.59516 0.607453 0.620326 0.633782 0.647823 0.662453 0.677676 0.693494 0.709911 0.72693 0.744554 0.762785 0.781628 0.801083 0.821155 0.841845 0.863156 0.885091 0.907652 0.930841 0.95466 0.97911 1.00419 1.02991 1.05627 1.08327 1.1109 1.13918 1.1681 1.14414 1.11594 1.08837 1.06141 1.03507 1.00935 0.984246 0.959757 0.935883 0.912621 0.88997 0.867929 0.846496 0.825668 0.805444 0.785822 0.766799 0.748373 0.730541 0.713302 0.696652 0.680589 0.665109 0.650211 0.635891 0.622145 0.608972 0.596368 0.58433 0.572855 0.561939 0.55158 0.541775 0.53252 0.523812 0.515649 0.508028 0.500946 0.4944 0.488387 0.482906 0.477954 0.473529 0.469629 0.466253 0.463399 0.461066 0.459252 0.457957 0.457181 0.456921 0.457181 0.457957 0.459252 0.461066 0.463399 0.466253 0.469629 0.473529 0.477954 0.482906 0.488387 0.4944 0.500946 0.508028 0.515649 0.523812 0.53252 0.541775 0.55158 0.561939 0.572855 0.58433 0.596368 0.608972 0.622145 0.635891 0.650211 0.665109 0.680589 0.696652 0.713302 0.730541 0.748373 0.766799 0.785822 0.805444 0.825668 0.846496 0.867929 0.88997 0.912621 0.935883 0.959757 0.984246 1.00935 1.03507 1.06141 1.08837 1.11594 1.14414 1.12043 1.09294 1.06605 1.03977 1.01407 0.988981 0.964484 0.940583 0.917277 0.894564 0.872444 0.850916 0.829977 0.809627 0.789863 0.770685 0.752089 0.734074 0.716637 0.699778 0.683493 0.667779 0.652635 0.638057 0.624044 0.610591 0.597697 0.585359 0.573574 0.562339 0.551651 0.541507 0.531904 0.52284 0.51431 0.506314 0.498849 0.491911 0.485497 0.479607 0.474236 0.469384 0.465048 0.461227 0.457918 0.455121 0.452834 0.451057 0.449788 0.449027 0.448773 0.449027 0.449788 0.451057 0.452834 0.455121 0.457918 0.461227 0.465048 0.469384 0.474236 0.479607 0.485497 0.491911 0.498849 0.506314 0.51431 0.52284 0.531904 0.541507 0.551651 0.562339 0.573574 0.585359 0.597697 0.610591 0.624044 0.638057 0.652635 0.667779 0.683493 0.699778 0.716637 0.734074 0.752089 0.770685 0.789863 0.809627 0.829977 0.850916 0.872444 0.894564 0.917277 0.940583 0.964484 0.988981 1.01407 1.03977 1.06605 1.09294 1.12043 1.09696 1.07018 1.04397 1.01834 0.993285 0.968809 0.94491 0.921587 0.898841 0.876671 0.855074 0.834052 0.813601 0.793722 0.774413 0.755672 0.737498 0.719889 0.702844 0.68636 0.670435 0.655067 0.640254 0.625994 0.612283 0.599121 0.586503 0.574428 0.562893 0.551895 0.541432 0.531501 0.522099 0.513223 0.504871 0.49704 0.489729 0.482933 0.476652 0.470881 0.465621 0.460867 0.456619 0.452876 0.449634 0.446894 0.444653 0.442912 0.441669 0.440923 0.440674 0.440923 0.441669 0.442912 0.444653 0.446894 0.449634 0.452876 0.456619 0.460867 0.465621 0.470881 0.476652 0.482933 0.489729 0.49704 0.504871 0.513223 0.522099 0.531501 0.541432 0.551895 0.562893 0.574428 0.586503 0.599121 0.612283 0.625994 0.640254 0.655067 0.670435 0.68636 0.702844 0.719889 0.737498 0.755672 0.774413 0.793722 0.813601 0.834052 0.855074 0.876671 0.898841 0.921587 0.94491 0.968809 0.993285 1.01834 1.04397 1.07018 1.09696 1.07375 1.04765 1.02211 0.997126 0.972701 0.948833 0.925523 0.902772 0.880578 0.858941 0.837861 0.817337 0.797368 0.777954 0.759094 0.740786 0.723028 0.70582 0.68916 0.673047 0.657478 0.642452 0.627967 0.61402 0.60061 0.587734 0.575389 0.563575 0.552287 0.541525 0.531284 0.521564 0.51236 0.503671 0.495494 0.487827 0.480668 0.474014 0.467863 0.462212 0.45706 0.452404 0.448244 0.444577 0.441402 0.438718 0.436523 0.434818 0.4336 0.432869 0.432625 0.432869 0.4336 0.434818 0.436523 0.438718 0.441402 0.444577 0.448244 0.452404 0.45706 0.462212 0.467863 0.474014 0.480668 0.487827 0.495494 0.503671 0.51236 0.521564 0.531284 0.541525 0.552287 0.563575 0.575389 0.587734 0.60061 0.61402 0.627967 0.642452 0.657478 0.673047 0.68916 0.70582 0.723028 0.740786 0.759094 0.777954 0.797368 0.817337 0.837861 0.858941 0.880578 0.902772 0.925523 0.948833 0.972701 0.997126 1.02211 1.04765 1.07375 1.05078 1.02536 1.00048 0.976131 0.952323 0.929055 0.906325 0.884136 0.862486 0.841375 0.820804 0.800772 0.781279 0.762324 0.743906 0.726025 0.708679 0.691867 0.675588 0.659841 0.644624 0.629936 0.615775 0.602138 0.589024 0.576431 0.564357 0.5528 0.541758 0.531228 0.521208 0.511695 0.502689 0.494185 0.486181 0.478676 0.471668 0.465154 0.459131 0.453599 0.448554 0.443996 0.439922 0.436331 0.433222 0.430594 0.428445 0.426774 0.425582 0.424866 0.424627 0.424866 0.425582 0.426774 0.428445 0.430594 0.433222 0.436331 0.439922 0.443996 0.448554 0.453599 0.459131 0.465154 0.471668 0.478676 0.486181 0.494185 0.502689 0.511695 0.521208 0.531228 0.541758 0.5528 0.564357 0.576431 0.589024 0.602138 0.615775 0.629936 0.644624 0.659841 0.675588 0.691867 0.708679 0.726025 0.743906 0.762324 0.781279 0.800772 0.820804 0.841375 0.862486 0.884136 0.906325 0.929055 0.952323 0.976131 1.00048 1.02536 1.05078 1.02806 1.00331 0.97907 0.955352 0.932152 0.909474 0.887316 0.86568 0.844566 0.823975 0.803905 0.784359 0.765334 0.746832 0.728851 0.711391 0.694451 0.67803 0.662128 0.646743 0.631873 0.617519 0.603677 0.590347 0.577526 0.565214 0.553407 0.542105 0.531304 0.521005 0.511203 0.501897 0.493084 0.484763 0.476932 0.469587 0.462729 0.456353 0.450458 0.445043 0.440105 0.435643 0.431655 0.428139 0.425095 0.422522 0.420418 0.418782 0.417615 0.416914 0.41668 0.416914 0.417615 0.418782 0.420418 0.422522 0.425095 0.428139 0.431655 0.435643 0.440105 0.445043 0.450458 0.456353 0.462729 0.469587 0.476932 0.484763 0.493084 0.501897 0.511203 0.521005 0.531304 0.542105 0.553407 0.565214 0.577526 0.590347 0.603677 0.617519 0.631873 0.646743 0.662128 0.67803 0.694451 0.711391 0.728851 0.746832 0.765334 0.784359 0.803905 0.823975 0.844566 0.86568 0.887316 0.909474 0.932152 0.955352 0.97907 1.00331 1.02806 1.00559 0.981492 0.957891 0.934789 0.912189 0.89009 0.868496 0.847405 0.82682 0.806739 0.787165 0.768097 0.749534 0.731478 0.713928 0.696884 0.680345 0.66431 0.64878 0.633752 0.619226 0.605201 0.591676 0.578648 0.566117 0.554082 0.54254 0.531489 0.520929 0.510856 0.50127 0.492168 0.483548 0.475409 0.467747 0.460561 0.453851 0.447612 0.441844 0.436545 0.431712 0.427345 0.423442 0.420001 0.417022 0.414503 0.412444 0.410843 0.4097 0.409014 0.408785 0.409014 0.4097 0.410843 0.412444 0.414503 0.417022 0.420001 0.423442 0.427345 0.431712 0.436545 0.441844 0.447612 0.453851 0.460561 0.467747 0.475409 0.483548 0.492168 0.50127 0.510856 0.520929 0.531489 0.54254 0.554082 0.566117 0.578648 0.591676 0.605201 0.619226 0.633752 0.64878 0.66431 0.680345 0.696884 0.713928 0.731478 0.749534 0.768097 0.787165 0.806739 0.82682 0.847405 0.868496 0.89009 0.912189 0.934789 0.957891 0.981492 1.00559 0.98337 0.959914 0.936938 0.914443 0.892432 0.870905 0.849865 0.829312 0.809246 0.78967 0.770583 0.751986 0.73388 0.716264 0.69914 0.682505 0.666362 0.650708 0.635544 0.62087 0.606683 0.592984 0.579771 0.567043 0.554798 0.543036 0.531755 0.520954 0.510631 0.500783 0.491411 0.482511 0.474081 0.466121 0.458627 0.451599 0.445035 0.438932 0.433289 0.428105 0.423377 0.419104 0.415285 0.411918 0.409003 0.406538 0.404523 0.402956 0.401838 0.401167 0.400943 0.401167 0.401838 0.402956 0.404523 0.406538 0.409003 0.411918 0.415285 0.419104 0.423377 0.428105 0.433289 0.438932 0.445035 0.451599 0.458627 0.466121 0.474081 0.482511 0.491411 0.500783 0.510631 0.520954 0.531755 0.543036 0.554798 0.567043 0.579771 0.592984 0.606683 0.62087 0.635544 0.650708 0.666362 0.682505 0.69914 0.716264 0.73388 0.751986 0.770583 0.78967 0.809246 0.829312 0.849865 0.870905 0.892432 0.914443 0.936938 0.959914 0.98337 0.961396 0.938573 0.916212 0.894314 0.872883 0.851919 0.831424 0.811399 0.791847 0.772767 0.75416 0.736028 0.718371 0.70119 0.684485 0.668255 0.652502 0.637225 0.622423 0.608097 0.594245 0.580867 0.567963 0.555531 0.543569 0.532078 0.521055 0.5105 0.500411 0.490787 0.481625 0.472925 0.464684 0.456901 0.449573 0.442701 0.436281 0.430313 0.424794 0.419723 0.415099 0.410919 0.407183 0.40389 0.401038 0.398627 0.396655 0.395123 0.394028 0.393372 0.393153 0.393372 0.394028 0.395123 0.396655 0.398627 0.401038 0.40389 0.407183 0.410919 0.415099 0.419723 0.424794 0.430313 0.436281 0.442701 0.449573 0.456901 0.464684 0.472925 0.481625 0.490787 0.500411 0.5105 0.521055 0.532078 0.543569 0.555531 0.567963 0.580867 0.594245 0.608097 0.622423 0.637225 0.652502 0.668255 0.684485 0.70119 0.718371 0.736028 0.75416 0.772767 0.791847 0.811399 0.831424 0.851919 0.872883 0.894314 0.916212 0.938573 0.961396 0.93967 0.917469 0.895713 0.874403 0.853542 0.833131 0.813173 0.79367 0.774621 0.75603 0.737897 0.720223 0.703009 0.686256 0.669965 0.654134 0.638766 0.62386 0.609416 0.595433 0.581913 0.568853 0.556253 0.544113 0.532431 0.521207 0.51044 0.500128 0.490271 0.480866 0.471914 0.463411 0.455356 0.447748 0.440586 0.433867 0.427592 0.421756 0.41636 0.411402 0.406879 0.402792 0.399139 0.395918 0.393129 0.39077 0.388842 0.387343 0.386273 0.385631 0.385416 0.385631 0.386273 0.387343 0.388842 0.39077 0.393129 0.395918 0.399139 0.402792 0.406879 0.411402 0.41636 0.421756 0.427592 0.433867 0.440586 0.447748 0.455356 0.463411 0.471914 0.480866 0.490271 0.500128 0.51044 0.521207 0.532431 0.544113 0.556253 0.568853 0.581913 0.595433 0.609416 0.62386 0.638766 0.654134 0.669965 0.686256 0.703009 0.720223 0.737897 0.75603 0.774621 0.79367 0.813173 0.833131 0.853542 0.874403 0.895713 0.917469 0.93967 0.918193 0.896603 0.875441 0.854709 0.834409 0.814543 0.795113 0.776122 0.757571 0.739461 0.721794 0.704572 0.687795 0.671464 0.65558 0.640143 0.625155 0.610615 0.596524 0.582881 0.569686 0.55694 0.544641 0.53279 0.521385 0.510425 0.49991 0.489839 0.480211 0.471024 0.462277 0.45397 0.446099 0.438665 0.431666 0.425099 0.418965 0.413262 0.407987 0.40314 0.398719 0.394723 0.391151 0.388002 0.385275 0.382969 0.381084 0.379618 0.378572 0.377944 0.377734 0.377944 0.378572 0.379618 0.381084 0.382969 0.385275 0.388002 0.391151 0.394723 0.398719 0.40314 0.407987 0.413262 0.418965 0.425099 0.431666 0.438665 0.446099 0.45397 0.462277 0.471024 0.480211 0.489839 0.49991 0.510425 0.521385 0.53279 0.544641 0.55694 0.569686 0.582881 0.596524 0.610615 0.625155 0.640143 0.65558 0.671464 0.687795 0.704572 0.721794 0.739461 0.757571 0.776122 0.795113 0.814543 0.834409 0.854709 0.875441 0.896603 0.918193 0.896963 0.875975 0.855397 0.835232 0.815484 0.796154 0.777244 0.758758 0.740696 0.72306 0.705853 0.689075 0.672728 0.656813 0.641331 0.626283 0.611669 0.59749 0.583747 0.570439 0.557567 0.545131 0.533129 0.521562 0.51043 0.499732 0.489466 0.479633 0.470231 0.461259 0.452716 0.444602 0.436914 0.429652 0.422813 0.416398 0.410404 0.40483 0.399676 0.394939 0.390618 0.386713 0.383222 0.380144 0.377478 0.375224 0.373381 0.371948 0.370925 0.370311 0.370107 0.370311 0.370925 0.371948 0.373381 0.375224 0.377478 0.380144 0.383222 0.386713 0.390618 0.394939 0.399676 0.40483 0.410404 0.416398 0.422813 0.429652 0.436914 0.444602 0.452716 0.461259 0.470231 0.479633 0.489466 0.499732 0.51043 0.521562 0.533129 0.545131 0.557567 0.570439 0.583747 0.59749 0.611669 0.626283 0.641331 0.656813 0.672728 0.689075 0.705853 0.72306 0.740696 0.758758 0.777244 0.796154 0.815484 0.835232 0.855397 0.875975 0.896963 0.875983 0.855584 0.83558 0.815974 0.796768 0.777964 0.759567 0.741576 0.723996 0.706827 0.690072 0.673732 0.657809 0.642304 0.627219 0.612553 0.598309 0.584487 0.571087 0.55811 0.545556 0.533425 0.521717 0.510431 0.499569 0.489128 0.479109 0.46951 0.460332 0.451573 0.443232 0.435308 0.427801 0.420708 0.414029 0.407762 0.401907 0.396463 0.391427 0.386799 0.382577 0.378762 0.37535 0.372343 0.369738 0.367535 0.365734 0.364334 0.363334 0.362735 0.362534 0.362735 0.363334 0.364334 0.365734 0.367535 0.369738 0.372343 0.37535 0.378762 0.382577 0.386799 0.391427 0.396463 0.401907 0.407762 0.414029 0.420708 0.427801 0.435308 0.443232 0.451573 0.460332 0.46951 0.479109 0.489128 0.499569 0.510431 0.521717 0.533425 0.545556 0.55811 0.571087 0.584487 0.598309 0.612553 0.627219 0.642304 0.657809 0.673732 0.690072 0.706827 0.723996 0.741576 0.759567 0.777964 0.796768 0.815974 0.83558 0.855584 0.875983 0.85525 0.835431 0.815991 0.796934 0.778261 0.759976 0.742081 0.724579 0.707472 0.690763 0.674453 0.658545 0.64304 0.627939 0.613244 0.598956 0.585076 0.571605 0.558543 0.545893 0.533652 0.521823 0.510405 0.499397 0.488801 0.478615 0.468839 0.459472 0.450515 0.441966 0.433825 0.42609 0.41876 0.411835 0.405313 0.399194 0.393477 0.388159 0.383241 0.378721 0.374598 0.37087 0.367538 0.3646 0.362055 0.359904 0.358144 0.356776 0.355799 0.355213 0.355018 0.355213 0.355799 0.356776 0.358144 0.359904 0.362055 0.3646 0.367538 0.37087 0.374598 0.378721 0.383241 0.388159 0.393477 0.399194 0.405313 0.411835 0.41876 0.42609 0.433825 0.441966 0.450515 0.459472 0.468839 0.478615 0.488801 0.499397 0.510405 0.521823 0.533652 0.545893 0.558543 0.571605 0.585076 0.598956 0.613244 0.627939 0.64304 0.658545 0.674453 0.690763 0.707472 0.724579 0.742081 0.759976 0.778261 0.796934 0.815991 0.835431 0.85525 0.834766 0.815516 0.79663 0.778112 0.759963 0.742187 0.724787 0.707766 0.691126 0.674869 0.658997 0.643514 0.62842 0.613717 0.599406 0.58549 0.57197 0.558845 0.546118 0.533789 0.521858 0.510327 0.499194 0.488461 0.478127 0.468193 0.458657 0.44952 0.440781 0.432439 0.424495 0.416946 0.409793 0.403034 0.396668 0.390694 0.385113 0.379921 0.375119 0.370706 0.366679 0.36304 0.359785 0.356916 0.354431 0.35233 0.350611 0.349275 0.348321 0.347749 0.347558 0.347749 0.348321 0.349275 0.350611 0.35233 0.354431 0.356916 0.359785 0.36304 0.366679 0.370706 0.375119 0.379921 0.385113 0.390694 0.396668 0.403034 0.409793 0.416946 0.424495 0.432439 0.440781 0.44952 0.458657 0.468193 0.478127 0.488461 0.499194 0.510327 0.521858 0.533789 0.546118 0.558845 0.57197 0.58549 0.599406 0.613717 0.62842 0.643514 0.658997 0.674869 0.691126 0.707766 0.724787 0.742187 0.759963 0.778112 0.79663 0.815516 0.834766 0.81453 0.795839 0.777498 0.759508 0.741875 0.7246 0.707686 0.691137 0.674956 0.659144 0.643704 0.628639 0.61395 0.599639 0.585708 0.572158 0.558991 0.546208 0.533811 0.521799 0.510174 0.498936 0.488086 0.477623 0.467549 0.457862 0.448564 0.439653 0.43113 0.422993 0.415243 0.407879 0.4009 0.394304 0.388092 0.382263 0.376815 0.371749 0.367062 0.362753 0.358823 0.35527 0.352093 0.349292 0.346866 0.344814 0.343136 0.341832 0.3409 0.340342 0.340155 0.340342 0.3409 0.341832 0.343136 0.344814 0.346866 0.349292 0.352093 0.35527 0.358823 0.362753 0.367062 0.371749 0.376815 0.382263 0.388092 0.394304 0.4009 0.407879 0.415243 0.422993 0.43113 0.439653 0.448564 0.457862 0.467549 0.477623 0.488086 0.498936 0.510174 0.521799 0.533811 0.546208 0.558991 0.572158 0.585708 0.599639 0.61395 0.628639 0.643704 0.659144 0.674956 0.691137 0.707686 0.7246 0.741875 0.759508 0.777498 0.795839 0.81453 0.794542 0.7764 0.758593 0.741124 0.723996 0.707213 0.690778 0.674694 0.658964 0.64359 0.628575 0.613921 0.599631 0.585706 0.572148 0.55896 0.546142 0.533695 0.521622 0.509923 0.4986 0.487651 0.477079 0.466884 0.457066 0.447624 0.43856 0.429873 0.421563 0.413629 0.406071 0.398889 0.392081 0.385648 0.379588 0.373901 0.368586 0.363642 0.359069 0.354865 0.35103 0.347562 0.344462 0.341728 0.33936 0.337357 0.33572 0.334447 0.333538 0.332992 0.33281 0.332992 0.333538 0.334447 0.33572 0.337357 0.33936 0.341728 0.344462 0.347562 0.35103 0.354865 0.359069 0.363642 0.368586 0.373901 0.379588 0.385648 0.392081 0.398889 0.406071 0.413629 0.421563 0.429873 0.43856 0.447624 0.457066 0.466884 0.477079 0.487651 0.4986 0.509923 0.521622 0.533695 0.546142 0.55896 0.572148 0.585706 0.599631 0.613921 0.628575 0.64359 0.658964 0.674694 0.690778 0.707213 0.723996 0.741124 0.758593 0.7764 0.794542 0.774803 0.757199 0.739917 0.722958 0.706328 0.690028 0.674064 0.658436 0.64315 0.628206 0.613609 0.599361 0.585463 0.571918 0.558728 0.545895 0.533421 0.521307 0.509554 0.498163 0.487137 0.476474 0.466177 0.456245 0.446679 0.43748 0.428647 0.42018 0.41208 0.404346 0.396978 0.389976 0.383338 0.377065 0.371155 0.365609 0.360425 0.355603 0.351142 0.347041 0.343299 0.339917 0.336892 0.334225 0.331914 0.32996 0.328362 0.32712 0.326233 0.325701 0.325523 0.325701 0.326233 0.32712 0.328362 0.32996 0.331914 0.334225 0.336892 0.339917 0.343299 0.347041 0.351142 0.355603 0.360425 0.365609 0.371155 0.377065 0.383338 0.389976 0.396978 0.404346 0.41208 0.42018 0.428647 0.43748 0.446679 0.456245 0.466177 0.476474 0.487137 0.498163 0.509554 0.521307 0.533421 0.545895 0.558728 0.571918 0.585463 0.599361 0.613609 0.628206 0.64315 0.658436 0.674064 0.690028 0.706328 0.722958 0.739917 0.757199 0.774803 0.755311 0.738237 0.721469 0.705012 0.68887 0.673046 0.657543 0.642365 0.627514 0.612995 0.598808 0.584958 0.571447 0.558276 0.545449 0.532966 0.520831 0.509043 0.497605 0.486519 0.475785 0.465405 0.455378 0.445706 0.43639 0.427429 0.418824 0.410575 0.402683 0.395146 0.387966 0.381141 0.374671 0.368556 0.362795 0.357387 0.352333 0.347631 0.343281 0.339282 0.335633 0.332334 0.329384 0.326783 0.324529 0.322623 0.321065 0.319853 0.318988 0.318469 0.318295 0.318469 0.318988 0.319853 0.321065 0.322623 0.324529 0.326783 0.329384 0.332334 0.335633 0.339282 0.343281 0.347631 0.352333 0.357387 0.362795 0.368556 0.374671 0.381141 0.387966 0.395146 0.402683 0.410575 0.418824 0.427429 0.43639 0.445706 0.455378 0.465405 0.475785 0.486519 0.497605 0.509043 0.520831 0.532966 0.545449 0.558276 0.571447 0.584958 0.598808 0.612995 0.627514 0.642365 0.657543 0.673046 0.68887 0.705012 0.721469 0.738237 0.755311 0.736069 0.719513 0.70325 0.687286 0.671623 0.656265 0.641216 0.626479 0.612058 0.597955 0.584173 0.570715 0.557584 0.544781 0.532311 0.520173 0.508371 0.496905 0.485778 0.474992 0.464547 0.454444 0.444684 0.435269 0.426198 0.417473 0.409093 0.401059 0.393371 0.38603 0.379035 0.372385 0.366081 0.360122 0.354507 0.349237 0.344311 0.339728 0.335488 0.331589 0.328032 0.324815 0.321939 0.319403 0.317206 0.315347 0.313828 0.312646 0.311802 0.311296 0.311127 0.311296 0.311802 0.312646 0.313828 0.315347 0.317206 0.319403 0.321939 0.324815 0.328032 0.331589 0.335488 0.339728 0.344311 0.349237 0.354507 0.360122 0.366081 0.372385 0.379035 0.38603 0.393371 0.401059 0.409093 0.417473 0.426198 0.435269 0.444684 0.454444 0.464547 0.474992 0.485778 0.496905 0.508371 0.520173 0.532311 0.544781 0.557584 0.570715 0.584173 0.597955 0.612058 0.626479 0.641216 0.656265 0.671623 0.687286 0.70325 0.719513 0.736069 0.717074 0.701027 0.68526 0.669779 0.654587 0.639687 0.625084 0.610781 0.596781 0.583087 0.569703 0.556631 0.543874 0.531434 0.519314 0.507516 0.496042 0.484894 0.474073 0.463582 0.453421 0.443592 0.434096 0.424933 0.416105 0.407612 0.399454 0.391632 0.384147 0.376998 0.370185 0.363709 0.357568 0.351763 0.346293 0.341159 0.336359 0.331894 0.327761 0.323962 0.320496 0.317361 0.314558 0.312086 0.309944 0.308133 0.306652 0.3055 0.304677 0.304184 0.304019 0.304184 0.304677 0.3055 0.306652 0.308133 0.309944 0.312086 0.314558 0.317361 0.320496 0.323962 0.327761 0.331894 0.336359 0.341159 0.346293 0.351763 0.357568 0.363709 0.370185 0.376998 0.384147 0.391632 0.399454 0.407612 0.416105 0.424933 0.434096 0.443592 0.453421 0.463582 0.474073 0.484894 0.496042 0.507516 0.519314 0.531434 0.543874 0.556631 0.569703 0.583087 0.596781 0.610781 0.625084 0.639687 0.654587 0.669779 0.68526 0.701027 0.717074 0.698328 0.682779 0.667499 0.652492 0.637762 0.623312 0.609147 0.59527 0.581684 0.568393 0.555399 0.542707 0.530317 0.518234 0.506459 0.494996 0.483845 0.473009 0.46249 0.45229 0.442409 0.43285 0.423613 0.4147 0.406111 0.397847 0.389908 0.382296 0.37501 0.368051 0.361418 0.355113 0.349133 0.343481 0.338154 0.333153 0.328478 0.324129 0.320104 0.316403 0.313026 0.309972 0.307241 0.304832 0.302745 0.300981 0.299537 0.298415 0.297614 0.297133 0.296972 0.297133 0.297614 0.298415 0.299537 0.300981 0.302745 0.304832 0.307241 0.309972 0.313026 0.316403 0.320104 0.324129 0.328478 0.333153 0.338154 0.343481 0.349133 0.355113 0.361418 0.368051 0.37501 0.382296 0.389908 0.397847 0.406111 0.4147 0.423613 0.43285 0.442409 0.45229 0.46249 0.473009 0.483845 0.494996 0.506459 0.518234 0.530317 0.542707 0.555399 0.568393 0.581684 0.59527 0.609147 0.623312 0.637762 0.652492 0.667499 0.682779 0.698328 0.67983 0.66477 0.649967 0.635425 0.621149 0.607141 0.593405 0.579947 0.566768 0.553872 0.541263 0.528943 0.516915 0.505183 0.493748 0.482613 0.471781 0.461253 0.451031 0.441117 0.431512 0.422219 0.413238 0.40457 0.396217 0.388179 0.380456 0.37305 0.365961 0.359189 0.352734 0.346597 0.340778 0.335275 0.33009 0.325221 0.32067 0.316434 0.312515 0.308911 0.305622 0.302648 0.299988 0.297642 0.29561 0.293891 0.292485 0.291392 0.290611 0.290143 0.289987 0.290143 0.290611 0.291392 0.292485 0.293891 0.29561 0.297642 0.299988 0.302648 0.305622 0.308911 0.312515 0.316434 0.32067 0.325221 0.33009 0.335275 0.340778 0.346597 0.352734 0.359189 0.365961 0.37305 0.380456 0.388179 0.396217 0.40457 0.413238 0.422219 0.431512 0.441117 0.451031 0.461253 0.471781 0.482613 0.493748 0.505183 0.516915 0.528943 0.541263 0.553872 0.566768 0.579947 0.593405 0.607141 0.621149 0.635425 0.649967 0.66477 0.67983 0.66158 0.647 0.632665 0.618579 0.604747 0.591173 0.57786 0.564812 0.552032 0.539525 0.527293 0.51534 0.503668 0.492281 0.48118 0.470369 0.45985 0.449624 0.439695 0.430063 0.420731 0.411699 0.40297 0.394545 0.386424 0.378608 0.371098 0.363896 0.357001 0.350414 0.344135 0.338164 0.332502 0.327147 0.322101 0.317363 0.312933 0.308811 0.304996 0.301488 0.298286 0.295391 0.292801 0.290517 0.288539 0.286865 0.285496 0.284432 0.283672 0.283216 0.283063 0.283216 0.283672 0.284432 0.285496 0.286865 0.288539 0.290517 0.292801 0.295391 0.298286 0.301488 0.304996 0.308811 0.312933 0.317363 0.322101 0.327147 0.332502 0.338164 0.344135 0.350414 0.357001 0.363896 0.371098 0.378608 0.386424 0.394545 0.40297 0.411699 0.420731 0.430063 0.439695 0.449624 0.45985 0.470369 0.48118 0.492281 0.503668 0.51534 0.527293 0.539525 0.552032 0.564812 0.57786 0.591173 0.604747 0.618579 0.632665 0.647 0.66158 0.643579 0.629469 0.615592 0.601954 0.588558 0.575409 0.56251 0.549865 0.537478 0.525353 0.513492 0.501899 0.490577 0.479529 0.468757 0.458264 0.448053 0.438126 0.428484 0.41913 0.410065 0.401292 0.392811 0.384624 0.376732 0.369135 0.361836 0.354834 0.34813 0.341725 0.33562 0.329813 0.324306 0.319098 0.314189 0.30958 0.30527 0.301259 0.297547 0.294134 0.291018 0.2882 0.28568 0.283458 0.281532 0.279903 0.278571 0.277535 0.276795 0.276351 0.276203 0.276351 0.276795 0.277535 0.278571 0.279903 0.281532 0.283458 0.28568 0.2882 0.291018 0.294134 0.297547 0.301259 0.30527 0.30958 0.314189 0.319098 0.324306 0.329813 0.33562 0.341725 0.34813 0.354834 0.361836 0.369135 0.376732 0.384624 0.392811 0.401292 0.410065 0.41913 0.428484 0.438126 0.448053 0.458264 0.468757 0.479529 0.490577 0.501899 0.513492 0.525353 0.537478 0.549865 0.56251 0.575409 0.588558 0.601954 0.615592 0.629469 0.643579 0.625826 0.612176 0.598749 0.585549 0.572581 0.559849 0.547357 0.535108 0.523107 0.511356 0.49986 0.488621 0.477642 0.466927 0.456479 0.446299 0.436391 0.426756 0.417398 0.408317 0.399517 0.390997 0.382761 0.374809 0.367142 0.359762 0.352669 0.345865 0.33935 0.333125 0.32719 0.321545 0.316191 0.311127 0.306354 0.301872 0.297681 0.29378 0.29017 0.286849 0.283819 0.281078 0.278626 0.276464 0.274591 0.273006 0.27171 0.270702 0.269982 0.26955 0.269406 0.26955 0.269982 0.270702 0.27171 0.273006 0.274591 0.276464 0.278626 0.281078 0.283819 0.286849 0.29017 0.29378 0.297681 0.301872 0.306354 0.311127 0.316191 0.321545 0.32719 0.333125 0.33935 0.345865 0.352669 0.359762 0.367142 0.374809 0.382761 0.390997 0.399517 0.408317 0.417398 0.426756 0.436391 0.446299 0.456479 0.466927 0.477642 0.488621 0.49986 0.511356 0.523107 0.535108 0.547357 0.559849 0.572581 0.585549 0.598749 0.612176 0.625826 0.608321 0.595122 0.582135 0.569366 0.556817 0.544494 0.532401 0.52054 0.508917 0.497535 0.486396 0.475505 0.464864 0.454477 0.444346 0.434474 0.424864 0.415518 0.406438 0.397627 0.389086 0.380816 0.372821 0.3651 0.357655 0.350488 0.3436 0.33699 0.330661 0.324613 0.318846 0.313361 0.308158 0.303236 0.298597 0.29424 0.290166 0.286374 0.282864 0.279636 0.276689 0.274024 0.27164 0.269537 0.267716 0.266174 0.264914 0.263934 0.263234 0.262814 0.262674 0.262814 0.263234 0.263934 0.264914 0.266174 0.267716 0.269537 0.27164 0.274024 0.276689 0.279636 0.282864 0.286374 0.290166 0.29424 0.298597 0.303236 0.308158 0.313361 0.318846 0.324613 0.330661 0.33699 0.3436 0.350488 0.357655 0.3651 0.372821 0.380816 0.389086 0.397627 0.406438 0.415518 0.424864 0.434474 0.444346 0.454477 0.464864 0.475505 0.486396 0.497535 0.508917 0.52054 0.532401 0.544494 0.556817 0.569366 0.582135 0.595122 0.608321 0.591065 0.578307 0.565752 0.553403 0.541266 0.529345 0.517642 0.506163 0.494911 0.483889 0.473102 0.462552 0.452243 0.442178 0.43236 0.42279 0.413473 0.404411 0.395605 0.387058 0.378773 0.37075 0.362991 0.355498 0.348272 0.341315 0.334627 0.32821 0.322064 0.316191 0.31059 0.305262 0.300207 0.295426 0.290919 0.286686 0.282727 0.279042 0.275631 0.272493 0.269629 0.267039 0.264722 0.262678 0.260907 0.259409 0.258184 0.257231 0.25655 0.256142 0.256006 0.256142 0.25655 0.257231 0.258184 0.259409 0.260907 0.262678 0.264722 0.267039 0.269629 0.272493 0.275631 0.279042 0.282727 0.286686 0.290919 0.295426 0.300207 0.305262 0.31059 0.316191 0.322064 0.32821 0.334627 0.341315 0.348272 0.355498 0.362991 0.37075 0.378773 0.387058 0.395605 0.404411 0.413473 0.42279 0.43236 0.442178 0.452243 0.462552 0.473102 0.483889 0.494911 0.506163 0.517642 0.529345 0.541266 0.553403 0.565752 0.578307 0.591065 0.574057 0.561731 0.549599 0.537663 0.525929 0.5144 0.503081 0.491976 0.481088 0.470421 0.459978 0.449764 0.439781 0.430032 0.42052 0.411248 0.40222 0.393436 0.3849 0.376613 0.368579 0.360798 0.353272 0.346004 0.338993 0.332243 0.325753 0.319525 0.31356 0.307858 0.30242 0.297248 0.29234 0.287697 0.28332 0.279208 0.275363 0.271784 0.26847 0.265423 0.262641 0.260124 0.257873 0.255887 0.254166 0.252711 0.25152 0.250594 0.249933 0.249536 0.249404 0.249536 0.249933 0.250594 0.25152 0.252711 0.254166 0.255887 0.257873 0.260124 0.262641 0.265423 0.26847 0.271784 0.275363 0.279208 0.28332 0.287697 0.29234 0.297248 0.30242 0.307858 0.31356 0.319525 0.325753 0.332243 0.338993 0.346004 0.353272 0.360798 0.368579 0.376613 0.3849 0.393436 0.40222 0.411248 0.42052 0.430032 0.439781 0.449764 0.459978 0.470421 0.481088 0.491976 0.503081 0.5144 0.525929 0.537663 0.549599 0.561731 0.574057 0.557297 0.545395 0.533676 0.522144 0.510805 0.499662 0.488719 0.47798 0.467449 0.45713 0.447026 0.43714 0.427477 0.418039 0.408828 0.399849 0.391103 0.382594 0.374322 0.366292 0.358505 0.350962 0.343666 0.336618 0.32982 0.323273 0.316978 0.310936 0.305149