<?xml version="1.0"?> 
<VTKFile type="StructuredGrid" version="0.1"> 
<StructuredGrid WholeExtent="0 200 0 200 0 0"> 
<Piece Extent="0 200 0 200 0 0"> 
<PointData Vectors="Displ">
<DataArray type="Float32" Name="Displ" format="ascii" NumberOfComponents="3"> 
0 0 0 -3.43701e-07 -3.18491e-07 0 -6.84563e-07 -6.35619e-07 0 -1.02259e-06 -9.51386e-07 0 -1.35777e-06 -1.26579e-06 0 -1.69012e-06 -1.57883e-06 0 -2.01963e-06 -1.89051e-06 0 -2.3463e-06 -2.20083e-06 0 -2.67013e-06 -2.50979e-06 0 -2.99112e-06 -2.81739e-06 0 -3.30927e-06 -3.12362e-06 0 -3.62459e-06 -3.42849e-06 0 -3.93706e-06 -3.732e-06 0 -4.2467e-06 -4.03414e-06 0 -4.5535e-06 -4.33493e-06 0 -4.85746e-06 -4.63435e-06 0 -5.15858e-06 -4.93241e-06 0 -5.45687e-06 -5.22911e-06 0 -5.75231e-06 -5.52445e-06 0 -6.04492e-06 -5.81843e-06 0 -6.33469e-06 -6.11104e-06 0 -6.62219e-06 -6.40674e-06 0 -6.90799e-06 -6.70996e-06 0 -7.1921e-06 -7.02072e-06 0 -7.47451e-06 -7.33901e-06 0 -7.75522e-06 -7.66482e-06 0 -8.03424e-06 -7.99817e-06 0 -8.31155e-06 -8.33904e-06 0 -8.58718e-06 -8.68745e-06 0 -8.8611e-06 -9.04339e-06 0 -9.13333e-06 -9.40685e-06 0 -9.40386e-06 -9.77785e-06 0 -9.67269e-06 -1.01564e-05 0 -9.93983e-06 -1.05424e-05 0 -1.02053e-05 -1.0936e-05 0 -1.0469e-05 -1.13371e-05 0 -1.07311e-05 -1.17458e-05 0 -1.09914e-05 -1.21619e-05 0 -1.12501e-05 -1.25857e-05 0 -1.1507e-05 -1.30169e-05 0 -1.17623e-05 -1.34557e-05 0 -1.20147e-05 -1.39016e-05 0 -1.22632e-05 -1.43544e-05 0 -1.25078e-05 -1.4814e-05 0 -1.27485e-05 -1.52804e-05 0 -1.29852e-05 -1.57537e-05 0 -1.3218e-05 -1.62337e-05 0 -1.34469e-05 -1.67207e-05 0 -1.36719e-05 -1.72144e-05 0 -1.38929e-05 -1.7715e-05 0 -1.411e-05 -1.82224e-05 0 -1.43232e-05 -1.87366e-05 0 -1.45324e-05 -1.92576e-05 0 -1.47378e-05 -1.97855e-05 0 -1.49391e-05 -2.03202e-05 0 -1.51366e-05 -2.08618e-05 0 -1.53301e-05 -2.14101e-05 0 -1.55198e-05 -2.19653e-05 0 -1.57054e-05 -2.25274e-05 0 -1.58872e-05 -2.30962e-05 0 -1.6065e-05 -2.36719e-05 0 -1.62389e-05 -2.4254e-05 0 -1.64089e-05 -2.48421e-05 0 -1.65749e-05 -2.54361e-05 0 -1.67369e-05 -2.60362e-05 0 -1.6895e-05 -2.66422e-05 0 -1.70492e-05 -2.72543e-05 0 -1.71994e-05 -2.78723e-05 0 -1.73457e-05 -2.84963e-05 0 -1.7488e-05 -2.91264e-05 0 -1.76264e-05 -2.97624e-05 0 -1.77608e-05 -3.04044e-05 0 -1.78913e-05 -3.10523e-05 0 -1.80179e-05 -3.17063e-05 0 -1.81405e-05 -3.23663e-05 0 -1.82591e-05 -3.30322e-05 0 -1.83738e-05 -3.37042e-05 0 -1.84846e-05 -3.43821e-05 0 -1.85914e-05 -3.5066e-05 0 -1.86943e-05 -3.57559e-05 0 -1.87932e-05 -3.64519e-05 0 -1.88882e-05 -3.71532e-05 0 -1.89792e-05 -3.78593e-05 0 -1.90663e-05 -3.85702e-05 0 -1.91493e-05 -3.9286e-05 0 -1.92285e-05 -4.00066e-05 0 -1.93036e-05 -4.0732e-05 0 -1.93748e-05 -4.14622e-05 0 -1.9442e-05 -4.21972e-05 0 -1.95053e-05 -4.2937e-05 0 -1.95646e-05 -4.36817e-05 0 -1.96199e-05 -4.44312e-05 0 -1.96713e-05 -4.51855e-05 0 -1.97187e-05 -4.59446e-05 0 -1.97621e-05 -4.67085e-05 0 -1.98016e-05 -4.74773e-05 0 -1.98371e-05 -4.82508e-05 0 -1.98687e-05 -4.90292e-05 0 -1.98962e-05 -4.98124e-05 0 -1.99199e-05 -5.06004e-05 0 -1.99395e-05 -5.13933e-05 0 -1.99553e-05 -5.21903e-05 0 -1.99675e-05 -5.2991e-05 0 -1.99761e-05 -5.37954e-05 0 -1.99809e-05 -5.46034e-05 0 -1.99822e-05 -5.54151e-05 0 -1.99797e-05 -5.62304e-05 0 -1.99736e-05 -5.70494e-05 0 -1.99639e-05 -5.7872e-05 0 -1.99505e-05 -5.86983e-05 0 -1.99334e-05 -5.95282e-05 0 -1.99127e-05 -6.03617e-05 0 -1.98884e-05 -6.11989e-05 0 -1.98603e-05 -6.20398e-05 0 -1.98287e-05 -6.28843e-05 0 -1.97933e-05 -6.37325e-05 0 -1.97543e-05 -6.45843e-05 0 -1.97117e-05 -6.54398e-05 0 -1.96654e-05 -6.62989e-05 0 -1.96154e-05 -6.71616e-05 0 -1.95618e-05 -6.80281e-05 0 -1.95047e-05 -6.88975e-05 0 -1.94444e-05 -6.97693e-05 0 -1.93807e-05 -7.06436e-05 0 -1.93138e-05 -7.15202e-05 0 -1.92436e-05 -7.23992e-05 0 -1.91701e-05 -7.32807e-05 0 -1.90934e-05 -7.41645e-05 0 -1.90133e-05 -7.50507e-05 0 -1.893e-05 -7.59393e-05 0 -1.88434e-05 -7.68304e-05 0 -1.87536e-05 -7.77238e-05 0 -1.86604e-05 -7.86196e-05 0 -1.8564e-05 -7.95178e-05 0 -1.84642e-05 -8.04184e-05 0 -1.83612e-05 -8.13214e-05 0 -1.8255e-05 -8.22268e-05 0 -1.81454e-05 -8.31346e-05 0 -1.80326e-05 -8.40448e-05 0 -1.79164e-05 -8.49574e-05 0 -1.7797e-05 -8.58724e-05 0 -1.76746e-05 -8.67892e-05 0 -1.75495e-05 -8.7707e-05 0 -1.74215e-05 -8.86259e-05 0 -1.72909e-05 -8.95459e-05 0 -1.71574e-05 -9.04669e-05 0 -1.70212e-05 -9.13891e-05 0 -1.68823e-05 -9.23123e-05 0 -1.67406e-05 -9.32366e-05 0 -1.65961e-05 -9.41619e-05 0 -1.64489e-05 -9.50884e-05 0 -1.62989e-05 -9.60159e-05 0 -1.61462e-05 -9.69445e-05 0 -1.59907e-05 -9.78742e-05 0 -1.58325e-05 -9.8805e-05 0 -1.56715e-05 -9.97368e-05 0 -1.55077e-05 -0.00010067 0 -1.53412e-05 -0.000101604 0 -1.5172e-05 -0.000102539 0 -1.5e-05 -0.000103475 0 -1.48252e-05 -0.000104412 0 -1.4648e-05 -0.00010535 0 -1.44688e-05 -0.000106287 0 -1.42876e-05 -0.000107224 0 -1.41043e-05 -0.000108161 0 -1.39191e-05 -0.000109097 0 -1.37317e-05 -0.000110033 0 -1.35424e-05 -0.000110969 0 -1.3351e-05 -0.000111904 0 -1.31576e-05 -0.000112839 0 -1.29621e-05 -0.000113774 0 -1.27647e-05 -0.000114708 0 -1.25652e-05 -0.000115642 0 -1.23636e-05 -0.000116576 0 -1.21601e-05 -0.000117509 0 -1.19545e-05 -0.000118442 0 -1.17468e-05 -0.000119374 0 -1.15372e-05 -0.000120307 0 -1.13255e-05 -0.000121239 0 -1.11118e-05 -0.00012217 0 -1.0896e-05 -0.000123102 0 -1.06789e-05 -0.000124032 0 -1.0461e-05 -0.000124961 0 -1.02424e-05 -0.000125889 0 -1.0023e-05 -0.000126815 0 -9.80295e-06 -0.00012774 0 -9.58212e-06 -0.000128664 0 -9.36055e-06 -0.000129586 0 -9.13825e-06 -0.000130507 0 -8.9152e-06 -0.000131427 0 -8.69142e-06 -0.000132345 0 -8.46691e-06 -0.000133261 0 -8.24165e-06 -0.000134177 0 -8.01565e-06 -0.000135091 0 -7.78892e-06 -0.000136003 0 -7.56145e-06 -0.000136914 0 -7.33324e-06 -0.000137824 0 -7.10429e-06 -0.000138733 0 -6.87461e-06 -0.00013964 0 -6.64418e-06 -0.000140545 0 -6.41302e-06 -0.00014145 0 0 0 0 -3.3866e-07 -3.13091e-07 0 -6.74684e-07 -6.25164e-07 0 -1.00807e-06 -9.36218e-07 0 -1.33883e-06 -1.24625e-06 0 -1.66695e-06 -1.55527e-06 0 -1.99243e-06 -1.86327e-06 0 -2.31528e-06 -2.17025e-06 0 -2.63549e-06 -2.47621e-06 0 -2.95307e-06 -2.78115e-06 0 -3.26801e-06 -3.08507e-06 0 -3.58032e-06 -3.38797e-06 0 -3.88999e-06 -3.68986e-06 0 -4.19703e-06 -3.99072e-06 0 -4.50143e-06 -4.29057e-06 0 -4.8032e-06 -4.5894e-06 0 -5.10233e-06 -4.88721e-06 0 -5.39883e-06 -5.184e-06 0 -5.69269e-06 -5.47977e-06 0 -5.98391e-06 -5.77453e-06 0 -6.2725e-06 -6.06826e-06 0 -6.55886e-06 -6.36522e-06 0 -6.84338e-06 -6.66962e-06 0 -7.12607e-06 -6.98149e-06 0 -7.40692e-06 -7.30081e-06 0 -7.68593e-06 -7.62758e-06 0 -7.96311e-06 -7.96181e-06 0 -8.23846e-06 -8.3035e-06 0 -8.51197e-06 -8.65264e-06 0 -8.78364e-06 -9.00923e-06 0 -9.05348e-06 -9.37328e-06 0 -9.32149e-06 -9.74479e-06 0 -9.58766e-06 -1.01238e-05 0 -9.85199e-06 -1.05102e-05 0 -1.01145e-05 -1.0904e-05 0 -1.03752e-05 -1.13054e-05 0 -1.0634e-05 -1.17142e-05 0 -1.0891e-05 -1.21304e-05 0 -1.11461e-05 -1.25541e-05 0 -1.13995e-05 -1.29852e-05 0 -1.16509e-05 -1.34238e-05 0 -1.18996e-05 -1.38696e-05 0 -1.21444e-05 -1.43222e-05 0 -1.23853e-05 -1.47817e-05 0 -1.26223e-05 -1.52481e-05 0 -1.28555e-05 -1.57213e-05 0 -1.30849e-05 -1.62013e-05 0 -1.33103e-05 -1.66883e-05 0 -1.35319e-05 -1.71821e-05 0 -1.37497e-05 -1.76827e-05 0 -1.39636e-05 -1.81902e-05 0 -1.41736e-05 -1.87046e-05 0 -1.43797e-05 -1.92259e-05 0 -1.4582e-05 -1.9754e-05 0 -1.47805e-05 -2.02889e-05 0 -1.4975e-05 -2.08307e-05 0 -1.51657e-05 -2.13794e-05 0 -1.53526e-05 -2.1935e-05 0 -1.55356e-05 -2.24974e-05 0 -1.57147e-05 -2.30667e-05 0 -1.58899e-05 -2.36428e-05 0 -1.60613e-05 -2.42253e-05 0 -1.62288e-05 -2.48139e-05 0 -1.63923e-05 -2.54084e-05 0 -1.65519e-05 -2.60089e-05 0 -1.67075e-05 -2.66153e-05 0 -1.68593e-05 -2.72278e-05 0 -1.70071e-05 -2.78462e-05 0 -1.7151e-05 -2.84706e-05 0 -1.7291e-05 -2.9101e-05 0 -1.74271e-05 -2.97373e-05 0 -1.75592e-05 -3.03797e-05 0 -1.76874e-05 -3.1028e-05 0 -1.78117e-05 -3.16823e-05 0 -1.7932e-05 -3.23425e-05 0 -1.80485e-05 -3.30088e-05 0 -1.8161e-05 -3.3681e-05 0 -1.82696e-05 -3.43592e-05 0 -1.83743e-05 -3.50434e-05 0 -1.8475e-05 -3.57335e-05 0 -1.85718e-05 -3.64297e-05 0 -1.86647e-05 -3.71312e-05 0 -1.87537e-05 -3.78375e-05 0 -1.88388e-05 -3.85487e-05 0 -1.89199e-05 -3.92647e-05 0 -1.89971e-05 -3.99855e-05 0 -1.90704e-05 -4.07112e-05 0 -1.91398e-05 -4.14416e-05 0 -1.92052e-05 -4.21769e-05 0 -1.92667e-05 -4.2917e-05 0 -1.93244e-05 -4.36619e-05 0 -1.9378e-05 -4.44117e-05 0 -1.94278e-05 -4.51662e-05 0 -1.94736e-05 -4.59256e-05 0 -1.95155e-05 -4.66898e-05 0 -1.95535e-05 -4.74588e-05 0 -1.95876e-05 -4.82327e-05 0 -1.96178e-05 -4.90114e-05 0 -1.9644e-05 -4.97949e-05 0 -1.96663e-05 -5.05832e-05 0 -1.96847e-05 -5.13763e-05 0 -1.96993e-05 -5.21737e-05 0 -1.97103e-05 -5.29747e-05 0 -1.97177e-05 -5.37793e-05 0 -1.97214e-05 -5.45876e-05 0 -1.97215e-05 -5.53996e-05 0 -1.9718e-05 -5.62152e-05 0 -1.97109e-05 -5.70344e-05 0 -1.97002e-05 -5.78573e-05 0 -1.96858e-05 -5.86838e-05 0 -1.96678e-05 -5.9514e-05 0 -1.96462e-05 -6.03479e-05 0 -1.9621e-05 -6.11853e-05 0 -1.95921e-05 -6.20265e-05 0 -1.95596e-05 -6.28712e-05 0 -1.95235e-05 -6.37196e-05 0 -1.94838e-05 -6.45717e-05 0 -1.94404e-05 -6.54274e-05 0 -1.93935e-05 -6.62868e-05 0 -1.93429e-05 -6.71498e-05 0 -1.92887e-05 -6.80164e-05 0 -1.9231e-05 -6.88861e-05 0 -1.91701e-05 -6.97581e-05 0 -1.9106e-05 -7.06326e-05 0 -1.90386e-05 -7.15094e-05 0 -1.89679e-05 -7.23887e-05 0 -1.8894e-05 -7.32704e-05 0 -1.88169e-05 -7.41544e-05 0 -1.87365e-05 -7.50408e-05 0 -1.86529e-05 -7.59297e-05 0 -1.8566e-05 -7.68209e-05 0 -1.84759e-05 -7.77146e-05 0 -1.83825e-05 -7.86106e-05 0 -1.82859e-05 -7.9509e-05 0 -1.81861e-05 -8.04099e-05 0 -1.8083e-05 -8.13131e-05 0 -1.79766e-05 -8.22187e-05 0 -1.7867e-05 -8.31267e-05 0 -1.77542e-05 -8.40371e-05 0 -1.76381e-05 -8.49499e-05 0 -1.75187e-05 -8.58651e-05 0 -1.73964e-05 -8.67821e-05 0 -1.72713e-05 -8.77001e-05 0 -1.71436e-05 -8.86192e-05 0 -1.7013e-05 -8.95394e-05 0 -1.68798e-05 -9.04606e-05 0 -1.67438e-05 -9.1383e-05 0 -1.66052e-05 -9.23064e-05 0 -1.64637e-05 -9.32309e-05 0 -1.63196e-05 -9.41564e-05 0 -1.61727e-05 -9.50831e-05 0 -1.60231e-05 -9.60108e-05 0 -1.58708e-05 -9.69396e-05 0 -1.57158e-05 -9.78694e-05 0 -1.5558e-05 -9.88004e-05 0 -1.53975e-05 -9.97324e-05 0 -1.52343e-05 -0.000100665 0 -1.50683e-05 -0.0001016 0 -1.48996e-05 -0.000102535 0 -1.47282e-05 -0.000103471 0 -1.45541e-05 -0.000104409 0 -1.43776e-05 -0.000105346 0 -1.41991e-05 -0.000106284 0 -1.40186e-05 -0.000107221 0 -1.38361e-05 -0.000108158 0 -1.36515e-05 -0.000109094 0 -1.3465e-05 -0.00011003 0 -1.32765e-05 -0.000110966 0 -1.3086e-05 -0.000111902 0 -1.28934e-05 -0.000112837 0 -1.26989e-05 -0.000113771 0 -1.25024e-05 -0.000114706 0 -1.23038e-05 -0.00011564 0 -1.21033e-05 -0.000116574 0 -1.19007e-05 -0.000117507 0 -1.16962e-05 -0.00011844 0 -1.14896e-05 -0.000119373 0 -1.1281e-05 -0.000120305 0 -1.10705e-05 -0.000121238 0 -1.08579e-05 -0.000122169 0 -1.06433e-05 -0.000123101 0 -1.04274e-05 -0.000124031 0 -1.02107e-05 -0.000124961 0 -9.9933e-06 -0.000125888 0 -9.77518e-06 -0.000126815 0 -9.55633e-06 -0.00012774 0 -9.33676e-06 -0.000128664 0 -9.11646e-06 -0.000129586 0 -8.89544e-06 -0.000130507 0 -8.67369e-06 -0.000131426 0 -8.45122e-06 -0.000132344 0 -8.22802e-06 -0.000133261 0 -8.0041e-06 -0.000134177 0 -7.77945e-06 -0.00013509 0 -7.55407e-06 -0.000136003 0 -7.32797e-06 -0.000136914 0 -7.10114e-06 -0.000137824 0 -6.87359e-06 -0.000138733 0 -6.64531e-06 -0.00013964 0 -6.41631e-06 -0.000140545 0 -6.18658e-06 -0.00014145 0 0 0 0 -3.3373e-07 -3.07806e-07 0 -6.65018e-07 -6.14928e-07 0 -9.93863e-07 -9.21365e-07 0 -1.32027e-06 -1.22712e-06 0 -1.64422e-06 -1.53219e-06 0 -1.96574e-06 -1.83657e-06 0 -2.28482e-06 -2.14027e-06 0 -2.60145e-06 -2.44329e-06 0 -2.91563e-06 -2.74562e-06 0 -3.22738e-06 -3.04727e-06 0 -3.53668e-06 -3.34823e-06 0 -3.84354e-06 -3.64851e-06 0 -4.14796e-06 -3.9481e-06 0 -4.44994e-06 -4.24702e-06 0 -4.74947e-06 -4.54524e-06 0 -5.04656e-06 -4.84278e-06 0 -5.3412e-06 -5.13964e-06 0 -5.63341e-06 -5.43581e-06 0 -5.92317e-06 -5.7313e-06 0 -6.21048e-06 -6.02611e-06 0 -6.4956e-06 -6.32426e-06 0 -6.77875e-06 -6.6298e-06 0 -7.05993e-06 -6.94273e-06 0 -7.33915e-06 -7.26304e-06 0 -7.6164e-06 -7.59073e-06 0 -7.89168e-06 -7.92581e-06 0 -8.165e-06 -8.26828e-06 0 -8.43636e-06 -8.61813e-06 0 -8.70574e-06 -8.97537e-06 0 -8.97317e-06 -9.33999e-06 0 -9.23862e-06 -9.71199e-06 0 -9.50212e-06 -1.00914e-05 0 -9.76364e-06 -1.04782e-05 0 -1.00232e-05 -1.08723e-05 0 -1.02808e-05 -1.12739e-05 0 -1.05364e-05 -1.16828e-05 0 -1.07901e-05 -1.20991e-05 0 -1.10418e-05 -1.25228e-05 0 -1.12915e-05 -1.29539e-05 0 -1.15393e-05 -1.33924e-05 0 -1.17842e-05 -1.3838e-05 0 -1.20252e-05 -1.42905e-05 0 -1.22625e-05 -1.47499e-05 0 -1.2496e-05 -1.52162e-05 0 -1.27257e-05 -1.56894e-05 0 -1.29516e-05 -1.61694e-05 0 -1.31737e-05 -1.66564e-05 0 -1.3392e-05 -1.71503e-05 0 -1.36064e-05 -1.7651e-05 0 -1.38171e-05 -1.81587e-05 0 -1.4024e-05 -1.86732e-05 0 -1.42271e-05 -1.91946e-05 0 -1.44264e-05 -1.97229e-05 0 -1.46219e-05 -2.02582e-05 0 -1.48136e-05 -2.08003e-05 0 -1.50014e-05 -2.13493e-05 0 -1.51855e-05 -2.19052e-05 0 -1.53658e-05 -2.2468e-05 0 -1.55423e-05 -2.30376e-05 0 -1.5715e-05 -2.36142e-05 0 -1.58838e-05 -2.41972e-05 0 -1.60488e-05 -2.47862e-05 0 -1.62098e-05 -2.53811e-05 0 -1.63669e-05 -2.5982e-05 0 -1.65202e-05 -2.65889e-05 0 -1.66695e-05 -2.72017e-05 0 -1.6815e-05 -2.78205e-05 0 -1.69565e-05 -2.84453e-05 0 -1.70941e-05 -2.9076e-05 0 -1.72279e-05 -2.97127e-05 0 -1.73577e-05 -3.03554e-05 0 -1.74836e-05 -3.1004e-05 0 -1.76056e-05 -3.16586e-05 0 -1.77238e-05 -3.23192e-05 0 -1.7838e-05 -3.29857e-05 0 -1.79483e-05 -3.36582e-05 0 -1.80548e-05 -3.43367e-05 0 -1.81573e-05 -3.50211e-05 0 -1.82559e-05 -3.57115e-05 0 -1.83506e-05 -3.64079e-05 0 -1.84415e-05 -3.71096e-05 0 -1.85284e-05 -3.78162e-05 0 -1.86115e-05 -3.85276e-05 0 -1.86907e-05 -3.92438e-05 0 -1.8766e-05 -3.99649e-05 0 -1.88375e-05 -4.06908e-05 0 -1.8905e-05 -4.14215e-05 0 -1.89687e-05 -4.2157e-05 0 -1.90285e-05 -4.28974e-05 0 -1.90844e-05 -4.36425e-05 0 -1.91364e-05 -4.43926e-05 0 -1.91846e-05 -4.51474e-05 0 -1.92289e-05 -4.5907e-05 0 -1.92693e-05 -4.66715e-05 0 -1.93058e-05 -4.74408e-05 0 -1.93384e-05 -4.82149e-05 0 -1.93672e-05 -4.89939e-05 0 -1.93921e-05 -4.97777e-05 0 -1.94131e-05 -5.05663e-05 0 -1.94302e-05 -5.13597e-05 0 -1.94436e-05 -5.21573e-05 0 -1.94534e-05 -5.29586e-05 0 -1.94596e-05 -5.37636e-05 0 -1.94622e-05 -5.45722e-05 0 -1.94612e-05 -5.53844e-05 0 -1.94566e-05 -5.62003e-05 0 -1.94485e-05 -5.70198e-05 0 -1.94367e-05 -5.7843e-05 0 -1.94214e-05 -5.86698e-05 0 -1.94025e-05 -5.95002e-05 0 -1.938e-05 -6.03343e-05 0 -1.93539e-05 -6.1172e-05 0 -1.93242e-05 -6.20134e-05 0 -1.92909e-05 -6.28584e-05 0 -1.9254e-05 -6.37071e-05 0 -1.92136e-05 -6.45594e-05 0 -1.91695e-05 -6.54153e-05 0 -1.91219e-05 -6.62749e-05 0 -1.90706e-05 -6.71381e-05 0 -1.90158e-05 -6.8005e-05 0 -1.89576e-05 -6.88749e-05 0 -1.88962e-05 -6.97472e-05 0 -1.88315e-05 -7.06219e-05 0 -1.87636e-05 -7.1499e-05 0 -1.86926e-05 -7.23784e-05 0 -1.86183e-05 -7.32603e-05 0 -1.85408e-05 -7.41446e-05 0 -1.84601e-05 -7.50312e-05 0 -1.83761e-05 -7.59203e-05 0 -1.8289e-05 -7.68117e-05 0 -1.81986e-05 -7.77056e-05 0 -1.8105e-05 -7.86018e-05 0 -1.80082e-05 -7.95005e-05 0 -1.79082e-05 -8.04015e-05 0 -1.7805e-05 -8.1305e-05 0 -1.76986e-05 -8.22108e-05 0 -1.75889e-05 -8.3119e-05 0 -1.74761e-05 -8.40296e-05 0 -1.736e-05 -8.49427e-05 0 -1.72407e-05 -8.58581e-05 0 -1.71185e-05 -8.67752e-05 0 -1.69935e-05 -8.76934e-05 0 -1.68659e-05 -8.86127e-05 0 -1.67356e-05 -8.95331e-05 0 -1.66025e-05 -9.04545e-05 0 -1.64668e-05 -9.13771e-05 0 -1.63284e-05 -9.23007e-05 0 -1.61872e-05 -9.32253e-05 0 -1.60434e-05 -9.41511e-05 0 -1.58969e-05 -9.50779e-05 0 -1.57477e-05 -9.60058e-05 0 -1.55957e-05 -9.69348e-05 0 -1.54411e-05 -9.78648e-05 0 -1.52838e-05 -9.87959e-05 0 -1.51238e-05 -9.97281e-05 0 -1.49611e-05 -0.000100661 0 -1.47957e-05 -0.000101596 0 -1.46276e-05 -0.000102531 0 -1.44568e-05 -0.000103468 0 -1.42833e-05 -0.000104405 0 -1.41074e-05 -0.000105343 0 -1.39296e-05 -0.000106281 0 -1.37498e-05 -0.000107218 0 -1.35681e-05 -0.000108155 0 -1.33843e-05 -0.000109091 0 -1.31986e-05 -0.000110028 0 -1.30109e-05 -0.000110964 0 -1.28212e-05 -0.000111899 0 -1.26296e-05 -0.000112834 0 -1.24359e-05 -0.000113769 0 -1.22403e-05 -0.000114704 0 -1.20427e-05 -0.000115638 0 -1.18431e-05 -0.000116572 0 -1.16416e-05 -0.000117506 0 -1.14381e-05 -0.000118439 0 -1.12326e-05 -0.000119372 0 -1.10251e-05 -0.000120304 0 -1.08157e-05 -0.000121236 0 -1.06042e-05 -0.000122168 0 -1.03908e-05 -0.0001231 0 -1.01761e-05 -0.000124031 0 -9.96059e-06 -0.00012496 0 -9.7444e-06 -0.000125888 0 -9.52751e-06 -0.000126814 0 -9.3099e-06 -0.000127739 0 -9.09158e-06 -0.000128663 0 -8.87254e-06 -0.000129585 0 -8.65279e-06 -0.000130506 0 -8.43233e-06 -0.000131426 0 -8.21116e-06 -0.000132344 0 -7.98927e-06 -0.000133261 0 -7.76666e-06 -0.000134176 0 -7.54335e-06 -0.00013509 0 -7.31932e-06 -0.000136003 0 -7.09458e-06 -0.000136914 0 -6.86912e-06 -0.000137824 0 -6.64295e-06 -0.000138733 0 -6.41607e-06 -0.00013964 0 -6.18847e-06 -0.000140545 0 -5.96016e-06 -0.00014145 0 0 0 0 -3.28913e-07 -3.02635e-07 0 -6.55564e-07 -6.04911e-07 0 -9.79954e-07 -9.06829e-07 0 -1.30208e-06 -1.20839e-06 0 -1.62195e-06 -1.50959e-06 0 -1.93956e-06 -1.81043e-06 0 -2.2549e-06 -2.11091e-06 0 -2.56799e-06 -2.41104e-06 0 -2.87881e-06 -2.71081e-06 0 -3.18737e-06 -3.01021e-06 0 -3.49367e-06 -3.30926e-06 0 -3.79771e-06 -3.60795e-06 0 -4.09949e-06 -3.90629e-06 0 -4.39901e-06 -4.20426e-06 0 -4.69627e-06 -4.50188e-06 0 -4.99126e-06 -4.79913e-06 0 -5.28399e-06 -5.09603e-06 0 -5.57447e-06 -5.39257e-06 0 -5.86268e-06 -5.68875e-06 0 -6.14863e-06 -5.98458e-06 0 -6.4324e-06 -6.28388e-06 0 -6.71409e-06 -6.5905e-06 0 -6.99369e-06 -6.90444e-06 0 -7.2712e-06 -7.2257e-06 0 -7.54662e-06 -7.55428e-06 0 -7.81995e-06 -7.89018e-06 0 -8.09119e-06 -8.2334e-06 0 -8.36035e-06 -8.58393e-06 0 -8.62741e-06 -8.94179e-06 0 -8.89239e-06 -9.30697e-06 0 -9.15528e-06 -9.67946e-06 0 -9.41608e-06 -1.00593e-05 0 -9.67479e-06 -1.04464e-05 0 -9.93141e-06 -1.08409e-05 0 -1.01859e-05 -1.12426e-05 0 -1.04384e-05 -1.16517e-05 0 -1.06887e-05 -1.20681e-05 0 -1.0937e-05 -1.24919e-05 0 -1.11832e-05 -1.29229e-05 0 -1.14273e-05 -1.33613e-05 0 -1.16685e-05 -1.38067e-05 0 -1.19059e-05 -1.42592e-05 0 -1.21396e-05 -1.47185e-05 0 -1.23695e-05 -1.51847e-05 0 -1.25958e-05 -1.56579e-05 0 -1.28182e-05 -1.6138e-05 0 -1.3037e-05 -1.6625e-05 0 -1.3252e-05 -1.7119e-05 0 -1.34632e-05 -1.76198e-05 0 -1.36707e-05 -1.81276e-05 0 -1.38745e-05 -1.86423e-05 0 -1.40745e-05 -1.91639e-05 0 -1.42708e-05 -1.96925e-05 0 -1.44634e-05 -2.0228e-05 0 -1.46522e-05 -2.07704e-05 0 -1.48373e-05 -2.13197e-05 0 -1.50186e-05 -2.18759e-05 0 -1.51962e-05 -2.24391e-05 0 -1.53701e-05 -2.30092e-05 0 -1.55402e-05 -2.35862e-05 0 -1.57065e-05 -2.41696e-05 0 -1.58689e-05 -2.4759e-05 0 -1.60275e-05 -2.53543e-05 0 -1.61822e-05 -2.59557e-05 0 -1.6333e-05 -2.65629e-05 0 -1.64799e-05 -2.71761e-05 0 -1.66229e-05 -2.77953e-05 0 -1.67621e-05 -2.84204e-05 0 -1.68974e-05 -2.90515e-05 0 -1.70288e-05 -2.96886e-05 0 -1.71563e-05 -3.03316e-05 0 -1.728e-05 -3.09805e-05 0 -1.73998e-05 -3.16354e-05 0 -1.75157e-05 -3.22963e-05 0 -1.76277e-05 -3.29631e-05 0 -1.77358e-05 -3.36359e-05 0 -1.78401e-05 -3.43146e-05 0 -1.79405e-05 -3.49993e-05 0 -1.8037e-05 -3.56899e-05 0 -1.81297e-05 -3.63865e-05 0 -1.82184e-05 -3.70885e-05 0 -1.83034e-05 -3.77953e-05 0 -1.83845e-05 -3.85069e-05 0 -1.84618e-05 -3.92234e-05 0 -1.85352e-05 -3.99447e-05 0 -1.86048e-05 -4.06708e-05 0 -1.86705e-05 -4.14018e-05 0 -1.87324e-05 -4.21375e-05 0 -1.87905e-05 -4.28781e-05 0 -1.88447e-05 -4.36236e-05 0 -1.88951e-05 -4.43738e-05 0 -1.89417e-05 -4.51289e-05 0 -1.89844e-05 -4.58888e-05 0 -1.90233e-05 -4.66536e-05 0 -1.90583e-05 -4.74232e-05 0 -1.90895e-05 -4.81976e-05 0 -1.91169e-05 -4.89768e-05 0 -1.91404e-05 -4.97608e-05 0 -1.91601e-05 -5.05497e-05 0 -1.9176e-05 -5.13434e-05 0 -1.91881e-05 -5.21414e-05 0 -1.91967e-05 -5.2943e-05 0 -1.92018e-05 -5.37482e-05 0 -1.92033e-05 -5.45571e-05 0 -1.92012e-05 -5.53696e-05 0 -1.91956e-05 -5.61857e-05 0 -1.91864e-05 -5.70055e-05 0 -1.91736e-05 -5.78289e-05 0 -1.91573e-05 -5.8656e-05 0 -1.91375e-05 -5.94867e-05 0 -1.91141e-05 -6.0321e-05 0 -1.90871e-05 -6.1159e-05 0 -1.90566e-05 -6.20006e-05 0 -1.90225e-05 -6.28459e-05 0 -1.89848e-05 -6.36948e-05 0 -1.89436e-05 -6.45473e-05 0 -1.88989e-05 -6.54035e-05 0 -1.88506e-05 -6.62633e-05 0 -1.87987e-05 -6.71268e-05 0 -1.87433e-05 -6.79939e-05 0 -1.86845e-05 -6.8864e-05 0 -1.86225e-05 -6.97365e-05 0 -1.85574e-05 -7.06114e-05 0 -1.8489e-05 -7.14887e-05 0 -1.84175e-05 -7.23684e-05 0 -1.83428e-05 -7.32505e-05 0 -1.8265e-05 -7.4135e-05 0 -1.81839e-05 -7.50219e-05 0 -1.80997e-05 -7.59111e-05 0 -1.80122e-05 -7.68028e-05 0 -1.79216e-05 -7.76969e-05 0 -1.78278e-05 -7.85933e-05 0 -1.77309e-05 -7.94922e-05 0 -1.76307e-05 -8.03934e-05 0 -1.75274e-05 -8.12971e-05 0 -1.74209e-05 -8.22031e-05 0 -1.73112e-05 -8.31115e-05 0 -1.71983e-05 -8.40224e-05 0 -1.70823e-05 -8.49356e-05 0 -1.6963e-05 -8.58512e-05 0 -1.68409e-05 -8.67685e-05 0 -1.67161e-05 -8.76869e-05 0 -1.65886e-05 -8.86064e-05 0 -1.64584e-05 -8.9527e-05 0 -1.63256e-05 -9.04486e-05 0 -1.61901e-05 -9.13713e-05 0 -1.60519e-05 -9.22951e-05 0 -1.5911e-05 -9.322e-05 0 -1.57675e-05 -9.41459e-05 0 -1.56214e-05 -9.50729e-05 0 -1.54725e-05 -9.6001e-05 0 -1.5321e-05 -9.69301e-05 0 -1.51668e-05 -9.78603e-05 0 -1.50099e-05 -9.87916e-05 0 -1.48504e-05 -9.9724e-05 0 -1.46882e-05 -0.000100657 0 -1.45234e-05 -0.000101592 0 -1.43558e-05 -0.000102527 0 -1.41856e-05 -0.000103464 0 -1.40128e-05 -0.000104402 0 -1.38376e-05 -0.00010534 0 -1.36605e-05 -0.000106278 0 -1.34814e-05 -0.000107215 0 -1.33004e-05 -0.000108152 0 -1.31174e-05 -0.000109089 0 -1.29324e-05 -0.000110025 0 -1.27456e-05 -0.000110961 0 -1.25567e-05 -0.000111897 0 -1.23659e-05 -0.000112832 0 -1.21732e-05 -0.000113767 0 -1.19785e-05 -0.000114702 0 -1.17819e-05 -0.000115636 0 -1.15833e-05 -0.00011657 0 -1.13827e-05 -0.000117504 0 -1.11803e-05 -0.000118437 0 -1.09758e-05 -0.00011937 0 -1.07694e-05 -0.000120303 0 -1.05611e-05 -0.000121235 0 -1.03508e-05 -0.000122167 0 -1.01385e-05 -0.000123099 0 -9.92496e-06 -0.00012403 0 -9.71069e-06 -0.000124959 0 -9.49571e-06 -0.000125887 0 -9.28003e-06 -0.000126814 0 -9.06365e-06 -0.000127739 0 -8.84657e-06 -0.000128663 0 -8.62879e-06 -0.000129585 0 -8.4103e-06 -0.000130506 0 -8.19112e-06 -0.000131426 0 -7.97123e-06 -0.000132344 0 -7.75064e-06 -0.000133261 0 -7.52935e-06 -0.000134176 0 -7.30736e-06 -0.00013509 0 -7.08467e-06 -0.000136003 0 -6.86127e-06 -0.000136914 0 -6.63718e-06 -0.000137824 0 -6.41238e-06 -0.000138733 0 -6.18688e-06 -0.00013964 0 -5.96068e-06 -0.000140546 0 -5.73377e-06 -0.00014145 0 0 0 0 -3.24206e-07 -2.97578e-07 0 -6.46322e-07 -5.95114e-07 0 -9.66348e-07 -8.92608e-07 0 -1.28428e-06 -1.19006e-06 0 -1.60013e-06 -1.48747e-06 0 -1.91388e-06 -1.78484e-06 0 -2.22554e-06 -2.08217e-06 0 -2.53512e-06 -2.37946e-06 0 -2.8426e-06 -2.6767e-06 0 -3.14799e-06 -2.97391e-06 0 -3.45129e-06 -3.27107e-06 0 -3.7525e-06 -3.56819e-06 0 -4.05163e-06 -3.86527e-06 0 -4.34866e-06 -4.16231e-06 0 -4.64359e-06 -4.45931e-06 0 -4.93644e-06 -4.75626e-06 0 -5.2272e-06 -5.05317e-06 0 -5.51587e-06 -5.35005e-06 0 -5.80245e-06 -5.64688e-06 0 -6.08694e-06 -5.94367e-06 0 -6.36927e-06 -6.24406e-06 0 -6.64941e-06 -6.55172e-06 0 -6.92734e-06 -6.86663e-06 0 -7.20307e-06 -7.1888e-06 0 -7.47659e-06 -7.51822e-06 0 -7.74791e-06 -7.85491e-06 0 -8.01703e-06 -8.19885e-06 0 -8.28394e-06 -8.55005e-06 0 -8.54864e-06 -8.9085e-06 0 -8.81114e-06 -9.27422e-06 0 -9.07144e-06 -9.64719e-06 0 -9.32954e-06 -1.00274e-05 0 -9.58543e-06 -1.04149e-05 0 -9.83911e-06 -1.08096e-05 0 -1.00906e-05 -1.12116e-05 0 -1.03399e-05 -1.16209e-05 0 -1.05869e-05 -1.20374e-05 0 -1.08318e-05 -1.24612e-05 0 -1.10745e-05 -1.28922e-05 0 -1.13149e-05 -1.33305e-05 0 -1.15525e-05 -1.37759e-05 0 -1.17863e-05 -1.42282e-05 0 -1.20164e-05 -1.46875e-05 0 -1.22429e-05 -1.51538e-05 0 -1.24657e-05 -1.56269e-05 0 -1.26848e-05 -1.61071e-05 0 -1.29002e-05 -1.65942e-05 0 -1.3112e-05 -1.70882e-05 0 -1.332e-05 -1.75892e-05 0 -1.35244e-05 -1.80971e-05 0 -1.37251e-05 -1.8612e-05 0 -1.39221e-05 -1.91338e-05 0 -1.41154e-05 -1.96626e-05 0 -1.4305e-05 -2.01983e-05 0 -1.4491e-05 -2.0741e-05 0 -1.46733e-05 -2.12906e-05 0 -1.48518e-05 -2.18472e-05 0 -1.50268e-05 -2.24107e-05 0 -1.5198e-05 -2.29812e-05 0 -1.53655e-05 -2.35586e-05 0 -1.55293e-05 -2.41425e-05 0 -1.56892e-05 -2.47323e-05 0 -1.58453e-05 -2.5328e-05 0 -1.59975e-05 -2.59298e-05 0 -1.61458e-05 -2.65374e-05 0 -1.62904e-05 -2.7151e-05 0 -1.6431e-05 -2.77705e-05 0 -1.65678e-05 -2.8396e-05 0 -1.67008e-05 -2.90274e-05 0 -1.68298e-05 -2.96648e-05 0 -1.69551e-05 -3.03081e-05 0 -1.70765e-05 -3.09574e-05 0 -1.7194e-05 -3.16126e-05 0 -1.73077e-05 -3.22738e-05 0 -1.74175e-05 -3.29409e-05 0 -1.75235e-05 -3.36139e-05 0 -1.76256e-05 -3.42929e-05 0 -1.77239e-05 -3.49778e-05 0 -1.78183e-05 -3.56687e-05 0 -1.79089e-05 -3.63655e-05 0 -1.79956e-05 -3.70677e-05 0 -1.80785e-05 -3.77748e-05 0 -1.81577e-05 -3.84866e-05 0 -1.8233e-05 -3.92033e-05 0 -1.83046e-05 -3.99249e-05 0 -1.83723e-05 -4.06512e-05 0 -1.84363e-05 -4.13824e-05 0 -1.84964e-05 -4.21185e-05 0 -1.85528e-05 -4.28593e-05 0 -1.86054e-05 -4.3605e-05 0 -1.86541e-05 -4.43555e-05 0 -1.86991e-05 -4.51109e-05 0 -1.87403e-05 -4.58711e-05 0 -1.87776e-05 -4.66361e-05 0 -1.88112e-05 -4.74059e-05 0 -1.8841e-05 -4.81806e-05 0 -1.88669e-05 -4.89601e-05 0 -1.88891e-05 -4.97444e-05 0 -1.89075e-05 -5.05336e-05 0 -1.89221e-05 -5.13276e-05 0 -1.8933e-05 -5.21258e-05 0 -1.89404e-05 -5.29276e-05 0 -1.89443e-05 -5.37331e-05 0 -1.89446e-05 -5.45423e-05 0 -1.89415e-05 -5.53551e-05 0 -1.89348e-05 -5.61715e-05 0 -1.89246e-05 -5.69915e-05 0 -1.89108e-05 -5.78152e-05 0 -1.88936e-05 -5.86425e-05 0 -1.88728e-05 -5.94735e-05 0 -1.88485e-05 -6.03081e-05 0 -1.88206e-05 -6.11463e-05 0 -1.87893e-05 -6.19882e-05 0 -1.87544e-05 -6.28337e-05 0 -1.8716e-05 -6.36828e-05 0 -1.86741e-05 -6.45356e-05 0 -1.86286e-05 -6.5392e-05 0 -1.85796e-05 -6.6252e-05 0 -1.85271e-05 -6.71157e-05 0 -1.84711e-05 -6.7983e-05 0 -1.84117e-05 -6.88534e-05 0 -1.83492e-05 -6.97261e-05 0 -1.82836e-05 -7.06012e-05 0 -1.82148e-05 -7.14787e-05 0 -1.81428e-05 -7.23587e-05 0 -1.80677e-05 -7.3241e-05 0 -1.79895e-05 -7.41257e-05 0 -1.79081e-05 -7.50127e-05 0 -1.78235e-05 -7.59022e-05 0 -1.77358e-05 -7.67941e-05 0 -1.7645e-05 -7.76884e-05 0 -1.7551e-05 -7.8585e-05 0 -1.74539e-05 -7.94841e-05 0 -1.73536e-05 -8.03855e-05 0 -1.72501e-05 -8.12894e-05 0 -1.71435e-05 -8.21956e-05 0 -1.70338e-05 -8.31043e-05 0 -1.69209e-05 -8.40153e-05 0 -1.68049e-05 -8.49287e-05 0 -1.66857e-05 -8.58445e-05 0 -1.65636e-05 -8.6762e-05 0 -1.64389e-05 -8.76807e-05 0 -1.63116e-05 -8.86003e-05 0 -1.61816e-05 -8.95211e-05 0 -1.60489e-05 -9.04429e-05 0 -1.59136e-05 -9.13658e-05 0 -1.57757e-05 -9.22898e-05 0 -1.56352e-05 -9.32148e-05 0 -1.5492e-05 -9.41409e-05 0 -1.53461e-05 -9.50681e-05 0 -1.51977e-05 -9.59963e-05 0 -1.50465e-05 -9.69256e-05 0 -1.48928e-05 -9.7856e-05 0 -1.47364e-05 -9.87875e-05 0 -1.45774e-05 -9.972e-05 0 -1.44157e-05 -0.000100654 0 -1.42514e-05 -0.000101588 0 -1.40844e-05 -0.000102524 0 -1.39148e-05 -0.000103461 0 -1.37426e-05 -0.000104399 0 -1.3568e-05 -0.000105337 0 -1.33916e-05 -0.000106275 0 -1.32132e-05 -0.000107212 0 -1.30329e-05 -0.00010815 0 -1.28507e-05 -0.000109086 0 -1.26666e-05 -0.000110023 0 -1.24805e-05 -0.000110959 0 -1.22925e-05 -0.000111895 0 -1.21026e-05 -0.00011283 0 -1.19108e-05 -0.000113766 0 -1.1717e-05 -0.0001147 0 -1.15213e-05 -0.000115635 0 -1.13237e-05 -0.000116569 0 -1.11241e-05 -0.000117503 0 -1.09227e-05 -0.000118436 0 -1.07193e-05 -0.000119369 0 -1.0514e-05 -0.000120302 0 -1.03067e-05 -0.000121234 0 -1.00976e-05 -0.000122166 0 -9.88647e-06 -0.000123098 0 -9.67408e-06 -0.000124029 0 -9.46099e-06 -0.000124959 0 -9.24721e-06 -0.000125887 0 -9.03274e-06 -0.000126813 0 -8.81759e-06 -0.000127739 0 -8.60174e-06 -0.000128662 0 -8.3852e-06 -0.000129585 0 -8.16797e-06 -0.000130506 0 -7.95006e-06 -0.000131426 0 -7.73145e-06 -0.000132344 0 -7.51215e-06 -0.000133261 0 -7.29216e-06 -0.000134176 0 -7.07148e-06 -0.00013509 0 -6.85012e-06 -0.000136003 0 -6.62806e-06 -0.000136914 0 -6.40531e-06 -0.000137824 0 -6.18187e-06 -0.000138733 0 -5.95774e-06 -0.00013964 0 -5.73292e-06 -0.000140546 0 -5.50741e-06 -0.00014145 0 0 0 0 -3.19612e-07 -2.92634e-07 0 -6.37293e-07 -5.85536e-07 0 -9.53044e-07 -8.78703e-07 0 -1.26686e-06 -1.17214e-06 0 -1.57875e-06 -1.46584e-06 0 -1.88871e-06 -1.75981e-06 0 -2.19674e-06 -2.05404e-06 0 -2.50284e-06 -2.34855e-06 0 -2.807e-06 -2.64331e-06 0 -3.10924e-06 -2.93835e-06 0 -3.40954e-06 -3.23365e-06 0 -3.70792e-06 -3.52922e-06 0 -4.00436e-06 -3.82506e-06 0 -4.29887e-06 -4.12116e-06 0 -4.59146e-06 -4.41753e-06 0 -4.88211e-06 -4.71417e-06 0 -5.17083e-06 -5.01107e-06 0 -5.45762e-06 -5.30824e-06 0 -5.74248e-06 -5.60567e-06 0 -6.02541e-06 -5.90338e-06 0 -6.30621e-06 -6.20482e-06 0 -6.58471e-06 -6.51345e-06 0 -6.86089e-06 -6.82929e-06 0 -7.13476e-06 -7.15233e-06 0 -7.40632e-06 -7.48256e-06 0 -7.67557e-06 -7.82e-06 0 -7.9425e-06 -8.16463e-06 0 -8.20713e-06 -8.51647e-06 0 -8.46944e-06 -8.87551e-06 0 -8.72943e-06 -9.24174e-06 0 -8.98712e-06 -9.61518e-06 0 -9.2425e-06 -9.99582e-06 0 -9.49556e-06 -1.03837e-05 0 -9.74631e-06 -1.07787e-05 0 -9.99475e-06 -1.11809e-05 0 -1.02409e-05 -1.15904e-05 0 -1.04847e-05 -1.2007e-05 0 -1.07262e-05 -1.24308e-05 0 -1.09654e-05 -1.28619e-05 0 -1.12023e-05 -1.33001e-05 0 -1.14362e-05 -1.37454e-05 0 -1.16664e-05 -1.41977e-05 0 -1.18931e-05 -1.4657e-05 0 -1.21161e-05 -1.51232e-05 0 -1.23355e-05 -1.55965e-05 0 -1.25513e-05 -1.60766e-05 0 -1.27634e-05 -1.65638e-05 0 -1.29719e-05 -1.7058e-05 0 -1.31768e-05 -1.75591e-05 0 -1.3378e-05 -1.80672e-05 0 -1.35757e-05 -1.85822e-05 0 -1.37697e-05 -1.91042e-05 0 -1.396e-05 -1.96333e-05 0 -1.41468e-05 -2.01692e-05 0 -1.43299e-05 -2.07122e-05 0 -1.45093e-05 -2.12621e-05 0 -1.46852e-05 -2.1819e-05 0 -1.48574e-05 -2.23829e-05 0 -1.5026e-05 -2.29538e-05 0 -1.5191e-05 -2.35316e-05 0 -1.53522e-05 -2.41159e-05 0 -1.55096e-05 -2.47061e-05 0 -1.56632e-05 -2.53022e-05 0 -1.58129e-05 -2.59043e-05 0 -1.59589e-05 -2.65123e-05 0 -1.6101e-05 -2.71263e-05 0 -1.62392e-05 -2.77462e-05 0 -1.63737e-05 -2.8372e-05 0 -1.65043e-05 -2.90038e-05 0 -1.66311e-05 -2.96415e-05 0 -1