<?xml version="1.0"?> 
<VTKFile type="StructuredGrid" version="0.1"> 
<StructuredGrid WholeExtent="0 200 0 200 0 0"> 
<Piece Extent="0 200 0 200 0 0"> 
<PointData Scalars="Stress components">
<DataArray type="Float32" Name="sigma_xx" format="ascii" NumberOfComponents="1"> 
-1137.76 -1126 -1114.58 -1103.49 -1092.74 -1082.34 -1072.27 -1062.55 -1053.18 -1044.16 -1035.5 -1027.19 -1019.24 -1011.65 -1004.43 -997.576 -991.092 -984.982 -979.248 -973.894 -968.923 -967.962 -967.114 -966.378 -965.755 -965.247 -964.854 -964.577 -964.417 -964.375 -964.452 -964.649 -964.967 -965.407 -965.97 -966.657 -967.469 -968.407 -969.472 -970.665 -971.987 -966.017 -960.04 -954.056 -948.064 -942.064 -936.057 -930.041 -924.018 -917.987 -911.948 -905.901 -899.845 -893.782 -887.71 -881.629 -875.541 -869.444 -863.338 -857.224 -851.1 -844.897 -838.662 -832.395 -826.095 -819.763 -813.397 -806.998 -800.566 -794.099 -787.598 -781.063 -774.492 -767.887 -761.245 -754.568 -747.855 -741.105 -734.318 -727.494 -720.633 -713.67 -706.668 -699.626 -692.544 -685.421 -678.256 -671.05 -663.801 -656.511 -649.177 -641.8 -634.38 -626.915 -619.406 -611.852 -604.252 -596.607 -588.915 -581.177 -573.391 -566.575 -559.712 -552.802 -545.843 -538.835 -531.778 -524.671 -517.514 -510.307 -503.048 -495.737 -488.374 -480.957 -473.488 -465.964 -458.386 -450.753 -443.063 -435.318 -427.515 -420.897 -414.228 -407.506 -400.732 -393.905 -387.024 -380.089 -373.099 -366.054 -358.952 -351.794 -344.579 -337.305 -329.973 -322.582 -315.13 -307.618 -300.045 -292.409 -284.711 -278.681 -272.594 -266.449 -260.244 -253.981 -247.657 -241.272 -234.825 -228.316 -221.744 -215.107 -208.407 -201.64 -194.808 -187.908 -180.94 -173.904 -166.798 -159.621 -152.374 -147.444 -142.443 -137.372 -132.228 -127.012 -121.721 -116.356 -110.915 -105.397 -99.8008 -94.126 -88.3712 -82.5356 -76.6178 -70.6169 -64.5318 -58.3613 -52.1043 -45.7595 -39.3258 -37.0833 -34.7882 -32.4396 -30.037 -27.5795 -25.0663 -22.4967 -19.8699 -17.185 -14.4413 -11.6378 -8.7738 -5.84833 -2.86051 0.190578 3.30585 6.48627 9.73279 13.0464 16.4281 -1120.8 -1109.72 -1098.97 -1088.56 -1078.49 -1068.76 -1059.38 -1050.35 -1041.66 -1033.33 -1025.36 -1017.75 -1010.49 -1003.61 -997.087 -990.938 -985.162 -979.762 -974.742 -970.103 -965.85 -964.481 -963.218 -962.063 -961.016 -960.078 -959.25 -958.532 -957.927 -957.433 -957.054 -956.788 -956.638 -956.605 -956.688 -956.89 -957.211 -957.652 -958.214 -958.898 -959.706 -953.889 -948.066 -942.235 -936.398 -930.553 -924.701 -918.842 -912.976 -907.102 -901.221 -895.332 -889.436 -883.533 -877.621 -871.702 -865.775 -859.841 -853.898 -847.948 -841.989 -835.809 -829.597 -823.353 -817.077 -810.768 -804.427 -798.053 -791.645 -785.204 -778.728 -772.219 -765.674 -759.095 -752.481 -745.831 -739.145 -732.422 -725.664 -718.868 -712.035 -705.169 -698.263 -691.318 -684.332 -677.306 -670.239 -663.13 -655.98 -648.787 -641.552 -634.274 -626.952 -619.587 -612.177 -604.723 -597.223 -589.678 -582.086 -574.449 -566.764 -560.018 -553.226 -546.386 -539.498 -532.562 -525.577 -518.543 -511.459 -504.325 -497.139 -489.902 -482.614 -475.273 -467.878 -460.431 -452.929 -445.372 -437.76 -430.092 -422.367 -415.828 -409.237 -402.595 -395.901 -389.154 -382.354 -375.5 -368.592 -361.628 -354.609 -347.533 -340.401 -333.211 -325.963 -318.656 -311.289 -303.862 -296.374 -288.825 -281.213 -275.257 -269.243 -263.172 -257.042 -250.853 -244.604 -238.295 -231.924 -225.491 -218.996 -212.437 -205.813 -199.125 -192.37 -185.549 -178.661 -171.704 -164.678 -157.582 -150.414 -145.559 -140.634 -135.639 -130.573 -125.435 -120.225 -114.94 -109.58 -104.145 -98.6327 -93.0428 -87.3741 -81.6256 -75.7962 -69.8847 -63.8903 -57.8116 -51.6476 -45.397 -39.0589 -36.8657 -34.6208 -32.3235 -29.973 -27.5686 -25.1095 -22.5949 -20.0242 -17.3964 -14.7108 -11.9665 -9.16266 -6.29847 -3.37303 -0.385425 2.66524 5.77992 8.95954 12.2051 15.5175 -1104.24 -1093.79 -1083.68 -1073.91 -1064.48 -1055.4 -1046.66 -1038.28 -1030.25 -1022.58 -1015.26 -1008.3 -1001.71 -995.491 -989.638 -984.157 -979.052 -974.325 -969.981 -966.02 -962.448 -960.693 -959.04 -957.489 -956.041 -954.697 -953.458 -952.324 -951.297 -950.376 -949.564 -948.861 -948.268 -947.785 -947.414 -947.156 -947.011 -946.98 -947.065 -947.267 -947.585 -941.914 -936.235 -930.551 -924.86 -919.162 -913.457 -907.746 -902.029 -896.304 -890.573 -884.834 -879.089 -873.337 -867.577 -861.811 -856.037 -850.256 -844.468 -838.672 -832.869 -826.714 -820.527 -814.309 -808.059 -801.777 -795.462 -789.114 -782.734 -776.32 -769.872 -763.391 -756.875 -750.325 -743.739 -737.119 -730.462 -723.77 -717.042 -710.277 -703.475 -696.704 -689.893 -683.043 -676.153 -669.222 -662.251 -655.238 -648.184 -641.088 -633.95 -626.769 -619.544 -612.277 -604.965 -597.608 -590.207 -582.761 -575.268 -567.73 -560.144 -553.469 -546.747 -539.979 -533.162 -526.298 -519.386 -512.424 -505.413 -498.352 -491.241 -484.078 -476.864 -469.598 -462.28 -454.908 -447.483 -440.003 -432.468 -424.878 -417.232 -410.771 -404.259 -397.696 -391.081 -384.414 -377.695 -370.921 -364.094 -357.212 -350.274 -343.281 -336.231 -329.124 -321.959 -314.736 -307.454 -300.112 -292.709 -285.245 -277.719 -271.836 -265.897 -259.899 -253.844 -247.73 -241.556 -235.322 -229.027 -222.67 -216.251 -209.769 -203.223 -196.612 -189.936 -183.193 -176.384 -169.506 -162.56 -155.543 -148.457 -143.675 -138.826 -133.906 -128.917 -123.857 -118.725 -113.52 -108.242 -102.888 -97.4592 -91.9534 -86.37 -80.7079 -74.966 -69.1433 -63.2386 -57.251 -51.1792 -45.0222 -38.7787 -36.6336 -34.4376 -32.1902 -29.8905 -27.5378 -25.1315 -22.6706 -20.1545 -17.5824 -14.9535 -12.267 -9.52192 -6.71757 -3.85303 -0.927438 2.06012 5.11055 8.2248 11.4038 14.6485 -1088.05 -1078.21 -1068.7 -1059.54 -1050.72 -1042.25 -1034.13 -1026.36 -1018.95 -1011.89 -1005.2 -998.865 -992.9 -987.305 -982.081 -977.232 -972.761 -968.671 -964.965 -961.646 -958.717 -956.6 -954.58 -952.657 -950.832 -949.105 -947.479 -945.952 -944.527 -943.204 -941.984 -940.867 -939.855 -938.948 -938.148 -937.455 -936.869 -936.393 -936.026 -935.77 -935.626 -930.091 -924.55 -919.003 -913.45 -907.891 -902.326 -896.754 -891.177 -885.593 -880.003 -874.406 -868.803 -863.194 -857.578 -851.955 -846.326 -840.69 -835.047 -829.397 -823.74 -817.612 -811.453 -805.263 -799.041 -792.787 -786.502 -780.183 -773.832 -767.448 -761.03 -754.579 -748.094 -741.575 -735.021 -728.432 -721.808 -715.149 -708.453 -701.722 -694.953 -688.275 -681.558 -674.801 -668.005 -661.169 -654.292 -647.374 -640.415 -633.414 -626.371 -619.285 -612.157 -604.985 -597.769 -590.51 -583.205 -575.856 -568.461 -561.02 -553.532 -546.928 -540.277 -533.579 -526.835 -520.043 -513.203 -506.314 -499.377 -492.389 -485.352 -478.264 -471.126 -463.935 -456.692 -449.397 -442.048 -434.645 -427.188 -419.676 -412.109 -405.726 -399.293 -392.808 -386.273 -379.685 -373.045 -366.352 -359.605 -352.804 -345.948 -339.037 -332.069 -325.045 -317.963 -310.823 -303.625 -296.367 -289.049 -281.67 -274.23 -268.421 -262.554 -256.631 -250.65 -244.61 -238.511 -232.352 -226.133 -219.852 -213.51 -207.104 -200.635 -194.102 -187.504 -180.84 -174.109 -167.31 -160.443 -153.507 -146.501 -141.793 -137.017 -132.173 -127.26 -122.277 -117.223 -112.097 -106.899 -101.627 -96.2802 -90.8579 -85.359 -79.7825 -74.1274 -68.3926 -62.577 -56.6796 -50.6993 -44.6349 -38.4852 -36.3869 -34.2386 -32.0397 -29.7895 -27.4873 -25.1323 -22.7237 -20.261 -17.7432 -15.1695 -12.5393 -9.85158 -7.10561 -4.30053 -1.43546 1.49048 4.47818 7.52857 10.6426 13.8212 -1072.26 -1062.98 -1054.05 -1045.46 -1037.21 -1029.32 -1021.77 -1014.58 -1007.75 -1001.28 -995.171 -989.427 -984.052 -979.048 -974.417 -970.164 -966.291 -962.8 -959.696 -956.98 -954.656 -952.201 -949.837 -947.565 -945.386 -943.301 -941.311 -939.417 -937.618 -935.916 -934.312 -932.807 -931.401 -930.095 -928.89 -927.787 -926.786 -925.889 -925.096 -924.408 -923.827 -918.42 -913.009 -907.591 -902.169 -896.74 -891.306 -885.866 -880.421 -874.969 -869.512 -864.048 -858.579 -853.104 -847.622 -842.135 -836.641 -831.141 -825.635 -820.122 -814.603 -808.505 -802.376 -796.215 -790.024 -783.801 -777.546 -771.259 -764.94 -758.588 -752.202 -745.784 -739.332 -732.846 -726.326 -719.772 -713.182 -706.557 -699.897 -693.201 -686.469 -679.883 -673.258 -666.593 -659.889 -653.146 -646.362 -639.537 -632.671 -625.764 -618.815 -611.823 -604.789 -597.712 -590.591 -583.426 -576.217 -568.963 -561.664 -554.319 -546.928 -540.394 -533.814 -527.188 -520.516 -513.796 -507.029 -500.214 -493.35 -486.436 -479.474 -472.461 -465.397 -458.282 -451.116 -443.897 -436.625 -429.3 -421.921 -414.487 -406.999 -400.693 -394.338 -387.932 -381.475 -374.967 -368.406 -361.793 -355.126 -348.406 -341.631 -334.801 -327.915 -320.973 -313.974 -306.917 -299.802 -292.628 -285.395 -278.101 -270.746 -265.009 -259.216 -253.367 -247.459 -241.494 -235.47 -229.386 -223.243 -217.038 -210.772 -204.443 -198.051 -191.595 -185.074 -178.488 -171.836 -165.117 -158.329 -151.473 -144.547 -139.911 -135.209 -130.439 -125.602 -120.695 -115.718 -110.671 -105.552 -100.361 -95.0957 -89.7561 -84.3409 -78.8493 -73.2802 -67.6326 -61.9053 -56.0974 -50.2077 -44.2351 -38.1785 -36.1257 -34.0237 -31.8721 -29.67 -27.4169 -25.1119 -22.7543 -20.3434 -17.8785 -15.3588 -12.7834 -10.1516 -7.46261 -4.71551 -1.90949 0.956318 3.8828 6.87085 9.9214 13.0354 -1056.85 -1048.11 -1039.71 -1031.66 -1023.95 -1016.6 -1009.6 -1002.95 -996.666 -990.743 -985.183 -979.991 -975.169 -970.72 -966.647 -962.953 -959.64 -956.712 -954.172 -952.022 -950.267 -947.495 -944.811 -942.214 -939.706 -937.286 -934.956 -932.717 -930.569 -928.514 -926.55 -924.681 -922.905 -921.225 -919.64 -918.152 -916.761 -915.469 -914.275 -913.181 -912.188 -906.903 -901.612 -896.317 -891.016 -885.71 -880.398 -875.082 -869.759 -864.432 -859.099 -853.761 -848.416 -843.067 -837.712 -832.351 -826.984 -821.611 -816.233 -810.848 -805.458 -799.391 -793.294 -787.166 -781.007 -774.817 -768.595 -762.342 -756.057 -749.739 -743.388 -737.005 -730.589 -724.139 -717.655 -711.136 -704.584 -697.997 -691.374 -684.716 -678.022 -671.527 -664.992 -658.419 -651.806 -645.153 -638.461 -631.728 -624.954 -618.139 -611.282 -604.383 -597.441 -590.457 -583.43 -576.358 -569.243 -562.083 -554.878 -547.627 -540.33 -533.868 -527.36 -520.806 -514.205 -507.558 -500.864 -494.122 -487.332 -480.493 -473.605 -466.667 -459.679 -452.64 -445.55 -438.408 -431.214 -423.966 -416.665 -409.311 -401.901 -395.673 -389.395 -383.067 -376.689 -370.259 -363.778 -357.244 -350.657 -344.017 -337.323 -330.574 -323.769 -316.909 -309.992 -303.018 -295.986 -288.896 -281.746 -274.536 -267.266 -261.602 -255.883 -250.107 -244.273 -238.382 -232.433 -226.424 -220.356 -214.227 -208.037 -201.784 -195.469 -189.091 -182.648 -176.14 -169.566 -162.925 -156.217 -149.44 -142.594 -138.03 -133.401 -128.705 -123.942 -119.111 -114.211 -109.242 -104.202 -99.09 -93.9057 -88.648 -83.316 -77.9085 -72.4246 -66.8633 -61.2235 -55.5043 -49.7044 -43.8229 -37.8586 -35.8499 -33.793 -31.6873 -29.532 -27.3266 -25.0703 -22.7623 -20.402 -17.9886 -15.5213 -12.9994 -10.4221 -7.78855 -5.09798 -2.34953 0.457641 3.3244 6.25164 9.24026 12.2912 -1041.82 -1033.58 -1025.69 -1018.14 -1010.94 -1004.09 -997.598 -991.463 -985.689 -980.278 -975.233 -970.557 -966.252 -962.322 -958.77 -955.598 -952.809 -950.407 -948.394 -946.773 -945.548 -942.484 -939.503 -936.604 -933.789 -931.059 -928.414 -925.854 -923.381 -920.995 -918.697 -916.488 -914.368 -912.337 -910.398 -908.55 -906.795 -905.132 -903.563 -902.089 -900.71 -895.538 -890.36 -885.178 -879.991 -874.799 -869.602 -864.401 -859.194 -853.982 -848.765 -843.543 -838.315 -833.083 -827.845 -822.602 -817.353 -812.099 -806.84 -801.575 -796.304 -790.271 -784.208 -778.115 -771.99 -765.836 -759.649 -753.432 -747.183 -740.902 -734.588 -728.242 -721.864 -715.452 -709.006 -702.527 -696.014 -689.466 -682.884 -676.266 -669.614 -663.207 -656.761 -650.277 -643.754 -637.191 -630.589 -623.946 -617.262 -610.538 -603.772 -596.964 -590.114 -583.221 -576.285 -569.306 -562.282 -555.215 -548.102 -540.944 -533.741 -527.349 -520.913 -514.431 -507.903 -501.329 -494.708 -488.04 -481.324 -474.559 -467.746 -460.884 -453.972 -447.009 -439.995 -432.931 -425.814 -418.644 -411.422 -404.146 -396.816 -390.665 -384.464 -378.214 -371.913 -365.562 -359.159 -352.705 -346.197 -339.637 -333.023 -326.354 -319.631 -312.852 -306.017 -299.125 -292.176 -285.169 -278.103 -270.977 -263.791 -258.2 -252.553 -246.851 -241.091 -235.274 -229.399 -223.466 -217.473 -211.419 -205.305 -199.129 -192.89 -186.589 -180.223 -173.793 -167.298 -160.736 -154.107 -147.41 -140.644 -136.151 -131.593 -126.97 -122.281 -117.526 -112.702 -107.809 -102.847 -97.8144 -92.7103 -87.5338 -82.284 -76.9599 -71.5605 -66.0848 -60.5317 -54.9004 -49.1896 -43.3983 -37.5255 -35.5596 -33.5465 -31.4853 -29.3756 -27.2165 -25.0075 -22.7477 -20.4366 -18.0733 -15.6571 -13.1872 -10.6629 -8.08344 -5.44793 -2.75558 -0.0055526 2.803 5.67095 8.59918 11.5886 -1027.18 -1019.41 -1011.98 -1004.9 -998.173 -991.798 -985.779 -980.118 -974.82 -969.886 -965.32 -961.124 -957.301 -953.854 -950.786 -948.099 -945.798 -943.884 -942.361 -941.232 -940.5 -937.167 -933.912 -930.735 -927.638 -924.62 -921.683 -918.828 -916.053 -913.362 -910.753 -908.229 -905.788 -903.433 -901.164 -898.982 -896.887 -894.879 -892.961 -891.132 -889.393 -884.325 -879.253 -874.176 -869.095 -864.009 -858.918 -853.823 -848.723 -843.619 -838.509 -833.395 -828.276 -823.152 -818.023 -812.889 -807.75 -802.606 -797.456 -792.302 -787.142 -781.145 -775.118 -769.061 -762.974 -756.857 -750.709 -744.529 -738.319 -732.076 -725.802 -719.496 -713.157 -706.786 -700.381 -693.943 -687.472 -680.966 -674.426 -667.852 -661.242 -654.923 -648.566 -642.169 -635.734 -629.26 -622.746 -616.192 -609.597 -602.962 -596.285 -589.567 -582.806 -576.003 -569.157 -562.268 -555.336 -548.359 -541.337 -534.27 -527.158 -520.838 -514.474 -508.064 -501.609 -495.108 -488.561 -481.967 -475.325 -468.635 -461.898 -455.111 -448.274 -441.388 -434.452 -427.464 -420.425 -413.334 -406.191 -398.994 -391.743 -385.669 -379.545 -373.372 -367.149 -360.876 -354.551 -348.175 -341.747 -335.266 -328.732 -322.144 -315.501 -308.803 -302.05 -295.24 -288.372 -281.448 -274.465 -267.423 -260.321 -254.802 -249.229 -243.599 -237.913 -232.17 -226.37 -220.511 -214.593 -208.615 -202.576 -196.476 -190.315 -184.09 -177.802 -171.449 -165.032 -158.548 -151.998 -145.381 -138.694 -134.272 -129.786 -125.235 -120.62 -115.938 -111.19 -106.373 -101.488 -96.5341 -91.5094 -86.4134 -81.2451 -76.0035 -70.6878 -65.297 -59.8299 -54.2856 -48.6631 -42.9613 -37.1791 -35.2548 -33.2841 -31.2662 -29.2006 -27.0866 -24.9235 -22.7106 -20.4472 -18.1326 -15.7661 -13.3469 -10.8742 -8.34729 -5.76537 -3.12764 -0.433263 2.31859 5.12876 7.99814 10.9276 -1012.93 -1005.59 -998.596 -991.95 -985.657 -979.719 -974.138 -968.917 -964.06 -959.568 -955.445 -951.693 -948.315 -945.315 -942.694 -940.457 -938.606 -937.144 -936.074 -935.4 -935.123 -931.544 -928.039 -924.607 -921.251 -917.97 -914.765 -911.637 -908.586 -905.613 -902.719 -899.903 -897.168 -894.513 -891.939 -889.446 -887.037 -884.71 -882.468 -880.309 -878.237 -873.265 -868.29 -863.311 -858.327 -853.339 -848.346 -843.35 -838.348 -833.342 -828.332 -823.317 -818.298 -813.274 -808.245 -803.211 -798.173 -793.13 -788.082 -783.03 -777.972 -772.013 -766.024 -760.006 -753.959 -747.881 -741.772 -735.633 -729.464 -723.263 -717.03 -710.766 -704.47 -698.141 -691.78 -685.385 -678.958 -672.497 -666.002 -659.473 -652.909 -646.676 -640.405 -634.095 -627.747 -621.359 -614.932 -608.465 -601.958 -595.41 -588.821 -582.191 -575.519 -568.804 -562.047 -555.246 -548.403 -541.515 -534.583 -527.606 -520.583 -514.335 -508.043 -501.706 -495.324 -488.896 -482.423 -475.903 -469.336 -462.721 -456.059 -449.348 -442.588 -435.779 -428.919 -422.009 -415.048 -408.036 -400.971 -393.854 -386.684 -380.685 -374.638 -368.542 -362.396 -356.2 -349.954 -343.656 -337.307 -330.905 -324.45 -317.941 -311.379 -304.762 -298.089 -291.36 -284.575 -277.733 -270.832 -263.873 -256.855 -251.409 -245.908 -240.352 -234.739 -229.07 -223.344 -217.56 -211.716 -205.814 -199.851 -193.827 -187.742 -181.594 -175.383 -169.108 -162.768 -156.363 -149.892 -143.353 -136.747 -132.394 -127.979 -123.5 -118.957 -114.349 -109.675 -104.934 -100.126 -95.2492 -90.3031 -85.2867 -80.1992 -75.0395 -69.8067 -64.4999 -59.118 -53.66 -48.125 -42.5118 -36.8194 -34.9354 -33.0058 -31.0299 -29.0072 -26.9369 -24.8184 -22.6509 -20.434 -18.1667 -15.8484 -13.4784 -11.0558 -8.58008 -6.0503 -3.4657 -0.825491 1.87116 4.62509 7.43715 10.3082 -999.065 -992.122 -985.527 -979.282 -973.39 -967.854 -962.677 -957.86 -953.408 -949.323 -945.607 -942.263 -939.295 -936.705 -934.496 -932.672 -931.234 -930.187 -929.533 -929.275 -929.417 -925.615 -921.883 -918.221 -914.629 -911.108 -907.659 -904.283 -900.979 -897.749 -894.593 -891.511 -888.505 -885.575 -882.721 -879.944 -877.245 -874.625 -872.084 -869.622 -867.241 -862.358 -857.472 -852.582 -847.687 -842.789 -837.886 -832.979 -828.068 -823.153 -818.234 -813.31 -808.381 -803.449 -798.511 -793.57 -788.624 -783.673 -778.718 -773.758 -768.793 -762.874 -756.926 -750.949 -744.943 -738.907 -732.841 -726.745 -720.618 -714.461 -708.272 -702.052 -695.8 -689.517 -683.201 -676.853 -670.472 -664.058 -657.61 -651.129 -644.613 -638.465 -632.278 -626.054 -619.791 -613.489 -607.147 -600.766 -594.345 -587.883 -581.38 -574.836 -568.251 -561.623 -554.953 -548.24 -541.484 -534.683 -527.839 -520.95 -514.016 -507.84 -501.62 -495.356 -489.047 -482.693 -476.294 -469.848 -463.356 -456.817 -450.23 -443.595 -436.912 -430.179 -423.398 -416.566 -409.683 -402.75 -395.764 -388.727 -381.636 -375.714 -369.743 -363.723 -357.654 -351.536 -345.367 -339.147 -332.876 -326.552 -320.177 -313.748 -307.265 -300.728 -294.136 -287.488 -280.784 -274.024 -267.205 -260.329 -253.394 -248.02 -242.592 -237.109 -231.57 -225.974 -220.322 -214.612 -208.844 -203.016 -197.129 -191.181 -185.172 -179.1 -172.967 -166.769 -160.507 -154.18 -147.788 -141.328 -134.801 -130.517 -126.172 -121.764 -117.293 -112.758 -108.158 -103.492 -98.7593 -93.9594 -89.0912 -84.1538 -79.1463 -74.0677 -68.9171 -63.6935 -58.3961 -53.0236 -47.5753 -42.0499 -36.4466 -34.6015 -32.7117 -30.7765 -28.7952 -26.7673 -24.692 -22.5687 -20.3967 -18.1754 -15.9039 -13.5817 -11.2079 -8.78182 -6.30271 -3.76978 -1.18224 1.46073 4.15993 6.91621 9.73044 -985.584 -979.005 -972.775 -966.896 -961.371 -956.203 -951.394 -946.947 -942.865 -939.15 -935.806 -932.835 -930.241 -928.025 -926.192 -924.743 -923.682 -923.013 -922.738 -922.859 -923.382 -919.38 -915.445 -911.575 -907.771 -904.035 -900.366 -896.765 -893.233 -889.77 -886.376 -883.053 -879.801 -876.62 -873.511 -870.475 -867.512 -864.623 -861.809 -859.069 -856.405 -851.604 -846.799 -841.989 -837.176 -832.359 -827.538 -822.713 -817.884 -813.051 -808.213 -803.372 -798.526 -793.676 -788.822 -783.964 -779.101 -774.234 -769.362 -764.486 -759.606 -753.729 -747.824 -741.891 -735.928 -729.936 -723.915 -717.863 -711.782 -705.67 -699.528 -693.354 -687.15 -680.914 -674.646 -668.346 -662.014 -655.649 -649.251 -642.82 -636.355 -630.29 -624.187 -618.046 -611.867 -605.649 -599.391 -593.095 -586.758 -580.381 -573.963 -567.504 -561.003 -554.461 -547.876 -541.249 -534.578 -527.864 -521.106 -514.303 -507.456 -501.352 -495.205 -489.014 -482.779 -476.498 -470.173 -463.802 -457.385 -450.922 -444.411 -437.852 -431.246 -424.591 -417.887 -411.133 -404.329 -397.475 -390.569 -383.612 -376.602 -370.755 -364.859 -358.916 -352.923 -346.881 -340.79 -334.647 -328.454 -322.209 -315.912 -309.562 -303.159 -296.701 -290.19 -283.623 -277 -270.32 -263.584 -256.79 -249.937 -244.636 -239.28 -233.87 -228.404 -222.882 -217.304 -211.668 -205.974 -200.222 -194.41 -188.537 -182.604 -176.61 -170.553 -164.433 -158.248 -152 -145.685 -139.305 -132.857 -128.641 -124.365 -120.028 -115.628 -111.165 -106.638 -102.046 -97.3887 -92.665 -87.8739 -83.0147 -78.0865 -73.0882 -68.019 -62.8779 -57.6641 -52.3764 -47.0139 -41.5756 -36.0604 -34.2531 -32.4018 -30.5059 -28.5648 -26.5779 -24.5445 -22.4639 -20.3356 -18.1587 -15.9327 -13.6568 -11.3303 -8.95251 -6.52261 -4.03986 -1.5035 1.08728 3.73328 6.43532 9.19425 -972.488 -966.24 -960.341 -954.794 -949.601 -944.766 -940.291 -936.178 -932.431 -929.051 -926.043 -923.409 -921.152 -919.275 -917.78 -916.671 -915.95 -915.622 -915.688 -916.152 -917.017 -912.84 -908.724 -904.67 -900.678 -896.75 -892.884 -889.083 -885.347 -881.675 -878.069 -874.529 -871.055 -867.649 -864.31 -861.039 -857.838 -854.705 -851.643 -848.651 -845.731 -841.002 -836.27 -831.533 -826.793 -822.05 -817.302 -812.55 -807.795 -803.035 -798.272 -793.505 -788.733 -783.957 -779.178 -774.394 -769.605 -764.813 -760.016 -755.215 -750.41 -744.578 -738.718 -732.83 -726.913 -720.968 -714.993 -708.989 -702.955 -696.891 -690.797 -684.673 -678.518 -672.332 -666.114 -659.865 -653.584 -647.271 -640.925 -634.546 -628.135 -622.152 -616.131 -610.072 -603.975 -597.839 -591.665 -585.451 -579.197 -572.903 -566.568 -560.193 -553.776 -547.317 -540.816 -534.273 -527.687 -521.057 -514.383 -507.666 -500.903 -494.872 -488.798 -482.68 -476.518 -470.312 -464.062 -457.766 -451.424 -445.036 -438.602 -432.12 -425.591 -419.013 -412.387 -405.712 -398.987 -392.212 -385.386 -378.509 -371.58 -365.808 -359.988 -354.12 -348.204 -342.238 -336.223 -330.158 -324.042 -317.875 -311.656 -305.385 -299.061 -292.683 -286.251 -279.764 -273.221 -266.623 -259.968 -253.256 -246.485 -241.256 -235.973 -230.635 -225.242 -219.794 -214.289 -208.728 -203.108 -197.431 -191.694 -185.897 -180.04 -174.122 -168.142 -162.098 -155.992 -149.821 -143.585 -137.283 -130.914 -126.767 -122.559 -118.291 -113.962 -109.57 -105.115 -100.597 -96.0141 -91.3658 -86.6512 -81.8694 -77.0197 -72.1009 -67.1124 -62.0531 -56.922 -51.7183 -46.4409 -41.0888 -35.6611 -33.8902 -32.076 -30.2182 -28.3159 -26.3686 -24.3757 -22.3366 -20.2505 -18.1167 -15.9348 -13.7038 -11.4232 -9.09216 -6.71 -4.27596 -1.78928 0.750823 3.34514 5.99447 8.69966 -959.779 -953.827 -948.225 -942.975 -938.08 -933.543 -929.366 -925.552 -922.105 -919.026 -916.318 -913.985 -912.029 -910.454 -909.261 -908.455 -908.038 -908.013 -908.384 -909.153 -910.323 -905.993 -901.72 -897.506 -893.35 -889.253 -885.215 -881.238 -877.321 -873.465 -869.67 -865.938 -862.267 -858.66 -855.116 -851.637 -848.221 -844.871 -841.587 -838.368 -835.217 -830.553 -825.885 -821.214 -816.539 -811.86 -807.178 -802.491 -797.801 -793.107 -788.409 -783.707 -779.001 -774.291 -769.577 -764.859 -760.137 -755.41 -750.68 -745.945 -741.206 -735.421 -729.608 -723.768 -717.899 -712.002 -706.076 -700.122 -694.138 -688.124 -682.081 -676.008 -669.904 -663.77 -657.606 -651.41 -645.182 -638.923 -632.632 -626.308 -619.952 -614.049 -608.109 -602.131 -596.115 -590.06 -583.967 -577.834 -571.662 -565.449 -559.197 -552.903 -546.568 -540.192 -533.773 -527.313 -520.809 -514.262 -507.672 -501.037 -494.358 -488.399 -482.398 -476.354 -470.267 -464.135 -457.959 -451.738 -445.472 -439.161 -432.803 -426.398 -419.946 -413.446 -406.898 -400.302 -393.656 -386.961 -380.215 -373.418 -366.571 -360.873 -355.128 -349.336 -343.495 -337.606 -331.667 -325.679 -319.64 -313.55 -307.409 -301.216 -294.97 -288.671 -282.319 -275.912 -269.449 -262.932 -256.357 -249.726 -243.038 -237.88 -232.669 -227.404 -222.085 -216.71 -211.279 -205.791 -200.246 -194.643 -188.981 -183.26 -177.479 -171.637 -165.733 -159.767 -153.737 -147.644 -141.486 -135.263 -128.973 -124.893 -120.753 -116.554 -112.294 -107.973 -103.59 -99.1448 -94.6355 -90.0619 -85.423 -80.7179 -75.9459 -71.106 -66.1973 -61.2189 -56.1699 -51.0494 -45.8563 -40.5896 -35.2485 -33.5127 -31.7344 -29.9132 -28.0485 -26.1395 -24.1858 -22.1866 -20.1414 -18.0494 -15.9101 -13.7226 -11.4864 -9.20075 -6.86487 -4.47806 -2.03957 0.451356 2.99551 5.59368 8.24667 -947.455 -941.765 -936.426 -931.439 -926.807 -922.534 -918.62 -915.071 -911.887 -909.073 -906.63 -904.562 -902.872 -901.562 -900.636 -900.096 -899.945 -900.188 -900.825 -901.862 -903.3 -898.84 -894.434 -890.083 -885.786 -881.545 -877.359 -873.229 -869.156 -865.14 -861.181 -857.28 -853.438 -849.655 -845.931 -842.267 -838.664 -835.121 -831.64 -828.22 -824.863 -820.256 -815.645 -811.031 -806.413 -801.791 -797.165 -792.536 -787.903 -783.266 -778.625 -773.98 -769.331 -764.678 -760.021 -755.36 -750.695 -746.026 -741.353 -736.675 -731.993 -726.257 -720.494 -714.704 -708.885 -703.039 -697.164 -691.261 -685.33 -679.369 -673.379 -667.359 -661.31 -655.23 -649.12 -642.98 -636.808 -630.606 -624.371 -618.105 -611.807 -605.984 -600.123 -594.224 -588.287 -582.312 -576.298 -570.245 -564.153 -558.021 -551.848 -545.635 -539.381 -533.085 -526.747 -520.368 -513.945 -507.48 -500.971 -494.418 -487.82 -481.935 -476.007 -470.037 -464.023 -457.966 -451.866 -445.72 -439.53 -433.295 -427.013 -420.686 -414.312 -407.89 -401.421 -394.903 -388.337 -381.721 -375.056 -368.34 -361.574 -355.95 -350.28 -344.563 -338.797 -332.984 -327.121 -321.209 -315.247 -309.234 -303.171 -297.056 -290.888 -284.668 -278.394 -272.066 -265.684 -259.246 -252.753 -246.202 -239.595 -234.509 -229.371 -224.178 -218.931 -213.629 -208.272 -202.858 -197.387 -191.859 -186.272 -180.626 -174.92 -169.154 -163.327 -157.438 -151.485 -145.47 -139.39 -133.245 -127.034 -123.02 -118.947 -114.816 -110.626 -106.375 -102.063 -97.6893 -93.253 -88.7532 -84.1893 -79.5602 -74.8651 -70.1033 -65.2737 -60.3755 -55.4078 -50.3696 -45.26 -40.078 -34.8226 -33.1206 -31.377 -29.5912 -27.7626 -25.8906 -23.9747 -22.0142 -20.0084 -17.9568 -15.8586 -13.7133 -11.5201 -9.27829 -6.98723 -4.64617 -2.25439 0.188878 2.68439 5.23293 7.83528 -935.517 -930.056 -924.945 -920.186 -915.783 -911.738 -908.054 -904.733 -901.778 -899.193 -896.98 -895.141 -893.68 -892.6 -891.903 -891.593 -891.673 -892.145 -893.013 -894.279 -895.948 -891.382 -886.866 -882.401 -877.987 -873.625 -869.314 -865.056 -860.851 -856.699 -852.601 -848.557 -844.567 -840.633 -836.754 -832.931 -829.164 -825.454 -821.802 -818.207 -814.671 -810.112 -805.55 -800.984 -796.415 -791.842 -787.265 -782.684 -778.099 -773.511 -768.919 -764.322 -759.722 -755.118 -750.509 -745.897 -741.28 -736.66 -732.035 -727.406 -722.772 -717.088 -711.376 -705.638 -699.872 -694.078 -688.257 -682.408 -676.531 -670.625 -664.69 -658.726 -652.733 -646.711 -640.658 -634.576 -628.462 -622.319 -616.144 -609.938 -603.7 -597.954 -592.171 -586.35 -580.491 -574.594 -568.659 -562.684 -556.67 -550.616 -544.523 -538.388 -532.213 -525.997 -519.738 -513.438 -507.095 -500.709 -494.28 -487.807 -481.29 -475.478 -469.624 -463.727 -457.788 -451.806 -445.781 -439.711 -433.597 -427.438 -421.234 -414.984 -408.688 -402.345 -395.954 -389.516 -383.029 -376.494 -369.909 -363.275 -356.59 -351.04 -345.444 -339.801 -334.111 -328.373 -322.586 -316.749 -310.864 -304.928 -298.941 -292.903 -286.814 -280.672 -274.476 -268.228 -261.924 -255.566 -249.153 -242.683 -236.157 -231.143 -226.076 -220.956 -215.782 -210.553 -205.269 -199.929 -194.532 -189.078 -183.566 -177.995 -172.365 -166.675 -160.923 -155.111 -149.236 -143.298 -137.295 -131.229 -125.096 -121.148 -117.142 -113.078 -108.956 -104.775 -100.533 -96.2305 -91.8664 -87.4399 -82.9501 -78.3962 -73.7774 -69.0929 -64.3416 -59.5229 -54.6356 -49.679 -44.6521 -39.554 -34.3836 -32.7141 -31.0037 -29.2519 -27.4582 -25.6219 -23.7424 -21.8191 -19.8515 -17.8388 -15.7805 -13.6758 -11.5241 -9.32478 -7.07708 -4.7803 -2.43372 -0.0366101 2.41178 4.91222 7.4655 -923.965 -918.698 -913.781 -909.217 -905.008 -901.156 -897.666 -894.539 -891.778 -889.387 -887.367 -885.722 -884.454 -883.567 -883.064 -882.947 -883.22 -883.885 -884.946 -886.405 -888.267 -883.618 -879.015 -874.46 -869.952 -865.493 -861.082 -856.72 -852.407 -848.143 -843.93 -839.767 -835.655 -831.594 -827.585 -823.627 -819.723 -815.871 -812.073 -808.329 -804.638 -800.121 -795.599 -791.074 -786.546 -782.013 -777.476 -772.936 -768.392 -763.843 -759.291 -754.735 -750.175 -745.61 -741.042 -736.469 -731.893 -727.312 -722.726 -718.137 -713.543 -707.912 -702.254 -696.57 -690.859 -685.121 -679.355 -673.562 -667.742 -661.893 -656.016 -650.11 -644.176 -638.212 -632.219 -626.197 -620.145 -614.062 -607.949 -601.806 -595.631 -589.961 -584.254 -578.509 -572.727 -566.907 -561.048 -555.15 -549.213 -543.237 -537.22 -531.163 -525.066 -518.927 -512.746 -506.524 -500.259 -493.951 -487.6 -481.206 -474.767 -469.028 -463.248 -457.426 -451.562 -445.655 -439.705 -433.712 -427.674 -421.592 -415.465 -409.293 -403.074 -396.81 -390.498 -384.14 -377.733 -371.278 -364.774 -358.221 -351.618 -346.142 -340.62 -335.052 -329.436 -323.772 -318.06 -312.3 -306.49 -300.631 -294.721 -288.76 -282.747 -276.683 -270.566 -264.396 -258.171 -251.893 -245.559 -239.169 -232.724 -227.781 -222.786 -217.738 -212.636 -207.48 -202.269 -197.003 -191.68 -186.3 -180.863 -175.367 -169.812 -164.198 -158.523 -152.786 -146.988 -141.127 -135.203 -129.214 -123.16 -119.277 -115.337 -111.34 -107.285 -103.172 -99.0004 -94.7685 -90.4758 -86.1218 -81.7055 -77.2261 -72.6828 -68.0747 -63.4011 -58.6609 -53.8534 -48.9776 -44.0326 -39.0175 -33.9313 -32.293 -30.6146 -28.8955 -27.1353 -25.3333 -23.4889 -21.6015 -19.6706 -17.6955 -15.6755 -13.6101 -11.4986 -9.34022 -7.13441 -4.88043 -2.57757 -0.225109 2.17769 4.63157 7.13731 -912.799 -907.692 -902.935 -898.53 -894.481 -890.789 -887.457 -884.489 -881.887 -879.653 -877.791 -876.304 -875.194 -874.464 -874.117 -874.157 -874.586 -875.408 -876.624 -878.24 -880.256 -875.547 -870.882 -866.26 -861.682 -857.15 -852.662 -848.219 -843.823 -839.472 -835.168 -830.911 -826.7 -822.538 -818.423 -814.357 -810.34 -806.372 -802.453 -798.585 -794.767 -790.282 -785.793 -781.301 -776.804 -772.304 -767.8 -763.292 -758.779 -754.263 -749.742 -745.218 -740.689 -736.156 -731.619 -727.078 -722.532 -717.982 -713.427 -708.868 -704.305 -698.729 -693.128 -687.5 -681.846 -676.165 -670.458 -664.723 -658.962 -653.172 -647.355 -641.51 -635.637 -629.735 -623.804 -617.844 -611.855 -605.836 -599.787 -593.708 -587.599 -582.004 -576.372 -570.702 -564.995 -559.25 -553.466 -547.644 -541.783 -535.882 -529.941 -523.96 -517.938 -511.875 -505.771 -499.625 -493.436 -487.205 -480.931 -474.613 -468.251 -462.586 -456.88 -451.133 -445.344 -439.512 -433.638 -427.721 -421.76 -415.755 -409.706 -403.611 -397.471 -391.286 -385.054 -378.775 -372.448 -366.074 -359.652 -353.18 -346.659 -341.257 -335.808 -330.313 -324.771 -319.182 -313.546 -307.86 -302.126 -296.342 -290.509 -284.624 -278.689 -272.70