<?xml version="1.0"?> 
<VTKFile type="StructuredGrid" version="0.1"> 
<StructuredGrid WholeExtent="0 100 0 100 0 0"> 
<Piece Extent="0 100 0 100 0 0"> 
<PointData Vectors="Mechanisum">
<DataArray type="Float32" Name="Mechanisum" format="ascii" NumberOfComponents="3"> 
-6.07858e-07 0.249999 0 -6.07858e-07 0.249999 0 -6.07896e-07 0.249999 0 -6.07973e-07 0.249999 0 -6.08089e-07 0.249999 0 -6.08243e-07 0.249999 0 -6.08436e-07 0.249999 0 -6.08668e-07 0.249999 0 -6.0894e-07 0.249999 0 -6.09251e-07 0.249999 0 -6.09601e-07 0.249999 0 -6.09991e-07 0.249999 0 -6.10421e-07 0.249999 0 -6.1089e-07 0.249999 0 -6.11399e-07 0.249999 0 -6.11949e-07 0.249999 0 -6.12538e-07 0.249999 0 -6.13168e-07 0.249999 0 -6.13837e-07 0.249999 0 -6.14547e-07 0.249999 0 -6.15298e-07 0.249999 0 -6.15998e-07 0.249999 0 -6.16768e-07 0.249999 0 -6.17609e-07 0.249999 0 -6.18521e-07 0.249999 0 -6.19505e-07 0.249999 0 -6.20559e-07 0.249999 0 -6.21684e-07 0.249999 0 -6.2288e-07 0.249999 0 -6.24148e-07 0.249999 0 -6.25486e-07 0.249999 0 -6.26896e-07 0.249999 0 -6.28378e-07 0.249999 0 -6.2993e-07 0.249999 0 -6.31553e-07 0.249999 0 -6.33248e-07 0.249999 0 -6.35014e-07 0.249999 0 -6.36851e-07 0.249999 0 -6.38758e-07 0.249999 0 -6.40737e-07 0.249999 0 -6.42786e-07 0.249999 0 -6.44472e-07 0.249999 0 -6.46318e-07 0.249999 0 -6.48325e-07 0.249999 0 -6.50491e-07 0.249999 0 -6.52818e-07 0.249999 0 -6.55305e-07 0.249999 0 -6.57951e-07 0.249999 0 -6.60757e-07 0.249999 0 -6.63723e-07 0.249999 0 -6.66847e-07 0.249999 0 -6.7013e-07 0.249999 0 -6.73572e-07 0.249999 0 -6.77171e-07 0.249999 0 -6.80929e-07 0.249999 0 -6.84844e-07 0.249999 0 -6.88915e-07 0.249999 0 -6.93143e-07 0.249999 0 -6.97527e-07 0.249999 0 -7.02067e-07 0.249999 0 -7.06761e-07 0.249999 0 -7.10078e-07 0.249999 0 -7.15227e-07 0.249999 0 -7.22205e-07 0.249999 0 -7.31011e-07 0.249999 0 -7.4164e-07 0.249999 0 -7.54089e-07 0.249999 0 -7.68355e-07 0.249999 0 -7.84433e-07 0.249999 0 -8.02318e-07 0.249999 0 -8.22006e-07 0.249999 0 -8.43492e-07 0.249999 0 -8.6677e-07 0.249999 0 -8.91835e-07 0.249999 0 -9.18679e-07 0.249999 0 -9.47297e-07 0.249999 0 -9.77683e-07 0.249999 0 -1.00983e-06 0.249999 0 -1.04373e-06 0.249999 0 -1.07937e-06 0.249999 0 -1.11675e-06 0.249999 0 -1.13636e-06 0.249999 0 -1.18464e-06 0.249999 0 -1.2615e-06 0.249999 0 -1.36686e-06 0.249999 0 -1.5006e-06 0.249999 0 -1.66263e-06 0.249999 0 -1.85283e-06 0.249999 0 -2.0711e-06 0.249999 0 -2.31732e-06 0.249999 0 -2.59136e-06 0.249999 0 -2.8931e-06 0.249999 0 -3.2224e-06 0.249999 0 -3.57913e-06 0.249999 0 -3.96316e-06 0.249999 0 -4.37432e-06 0.249999 0 -4.81249e-06 0.249998 0 -5.27749e-06 0.249998 0 -5.76919e-06 0.249998 0 -6.28741e-06 0.249998 0 -6.83199e-06 0.249998 0 -6.01656e-07 0.249999 0 -6.01651e-07 0.249999 0 -6.01685e-07 0.249999 0 -6.01756e-07 0.249999 0 -6.01867e-07 0.249999 0 -6.02016e-07 0.249999 0 -6.02204e-07 0.249999 0 -6.02431e-07 0.249999 0 -6.02697e-07 0.249999 0 -6.03002e-07 0.249999 0 -6.03347e-07 0.249999 0 -6.03731e-07 0.249999 0 -6.04154e-07 0.249999 0 -6.04617e-07 0.249999 0 -6.05121e-07 0.249999 0 -6.05663e-07 0.249999 0 -6.06246e-07 0.249999 0 -6.06869e-07 0.249999 0 -6.07532e-07 0.249999 0 -6.08235e-07 0.249999 0 -6.08979e-07 0.249999 0 -6.09681e-07 0.249999 0 -6.10452e-07 0.249999 0 -6.11292e-07 0.249999 0 -6.122e-07 0.249999 0 -6.13177e-07 0.249999 0 -6.14223e-07 0.249999 0 -6.15337e-07 0.249999 0 -6.16521e-07 0.249999 0 -6.17773e-07 0.249999 0 -6.19094e-07 0.249999 0 -6.20485e-07 0.249999 0 -6.21944e-07 0.249999 0 -6.23472e-07 0.249999 0 -6.25069e-07 0.249999 0 -6.26735e-07 0.249999 0 -6.2847e-07 0.249999 0 -6.30273e-07 0.249999 0 -6.32146e-07 0.249999 0 -6.34086e-07 0.249999 0 -6.36095e-07 0.249999 0 -6.37757e-07 0.249999 0 -6.39567e-07 0.249999 0 -6.41525e-07 0.249999 0 -6.4363e-07 0.249999 0 -6.45884e-07 0.249999 0 -6.48285e-07 0.249999 0 -6.50834e-07 0.249999 0 -6.5353e-07 0.249999 0 -6.56374e-07 0.249999 0 -6.59364e-07 0.249999 0 -6.62501e-07 0.249999 0 -6.65784e-07 0.249999 0 -6.69213e-07 0.249999 0 -6.72788e-07 0.249999 0 -6.76508e-07 0.249999 0 -6.80373e-07 0.249999 0 -6.84382e-07 0.249999 0 -6.88536e-07 0.249999 0 -6.92832e-07 0.249999 0 -6.97272e-07 0.249999 0 -7.00407e-07 0.249999 0 -7.05175e-07 0.249999 0 -7.11572e-07 0.249999 0 -7.19597e-07 0.249999 0 -7.29247e-07 0.249999 0 -7.40519e-07 0.249999 0 -7.53409e-07 0.249999 0 -7.67913e-07 0.249999 0 -7.84028e-07 0.249999 0 -8.01749e-07 0.249999 0 -8.21072e-07 0.249999 0 -8.41992e-07 0.249999 0 -8.64503e-07 0.249999 0 -8.88601e-07 0.249999 0 -9.14279e-07 0.249999 0 -9.41532e-07 0.249999 0 -9.70353e-07 0.249999 0 -1.00074e-06 0.249999 0 -1.03267e-06 0.249999 0 -1.06616e-06 0.249999 0 -1.08341e-06 0.249999 0 -1.12619e-06 0.249999 0 -1.1944e-06 0.249999 0 -1.28797e-06 0.249999 0 -1.40682e-06 0.249999 0 -1.55084e-06 0.249999 0 -1.71994e-06 0.249999 0 -1.91403e-06 0.249999 0 -2.133e-06 0.249999 0 -2.37674e-06 0.249999 0 -2.64515e-06 0.249999 0 -2.9381e-06 0.249999 0 -3.25547e-06 0.249999 0 -3.59714e-06 0.249999 0 -3.96299e-06 0.249999 0 -4.35288e-06 0.249999 0 -4.76668e-06 0.249998 0 -5.20425e-06 0.249998 0 -5.66545e-06 0.249998 0 -6.15012e-06 0.249998 0 -5.95429e-07 0.249999 0 -5.95419e-07 0.249999 0 -5.95447e-07 0.249999 0 -5.95513e-07 0.249999 0 -5.95618e-07 0.249999 0 -5.95761e-07 0.249999 0 -5.95943e-07 0.249999 0 -5.96163e-07 0.249999 0 -5.96423e-07 0.249999 0 -5.96722e-07 0.249999 0 -5.9706e-07 0.249999 0 -5.97437e-07 0.249999 0 -5.97854e-07 0.249999 0 -5.9831e-07 0.249999 0 -5.98806e-07 0.249999 0 -5.99342e-07 0.249999 0 -5.99918e-07 0.249999 0 -6.00533e-07 0.249999 0 -6.01188e-07 0.249999 0 -6.01883e-07 0.249999 0 -6.02619e-07 0.249999 0 -6.03323e-07 0.249999 0 -6.04093e-07 0.249999 0 -6.04929e-07 0.249999 0 -6.05832e-07 0.249999 0 -6.06802e-07 0.249999 0 -6.07837e-07 0.249999 0 -6.0894e-07 0.249999 0 -6.10109e-07 0.249999 0 -6.11344e-07 0.249999 0 -6.12646e-07 0.249999 0 -6.14015e-07 0.249999 0 -6.15451e-07 0.249999 0 -6.16953e-07 0.249999 0 -6.18522e-07 0.249999 0 -6.20157e-07 0.249999 0 -6.21859e-07 0.249999 0 -6.23627e-07 0.249999 0 -6.25462e-07 0.249999 0 -6.27363e-07 0.249999 0 -6.2933e-07 0.249999 0 -6.30968e-07 0.249999 0 -6.32742e-07 0.249999 0 -6.34652e-07 0.249999 0 -6.36699e-07 0.249999 0 -6.38882e-07 0.249999 0 -6.41201e-07 0.249999 0 -6.43656e-07 0.249999 0 -6.46247e-07 0.249999 0 -6.48973e-07 0.249999 0 -6.51834e-07 0.249999 0 -6.54831e-07 0.249999 0 -6.57962e-07 0.249999 0 -6.61227e-07 0.249999 0 -6.64627e-07 0.249999 0 -6.6816e-07 0.249999 0 -6.71827e-07 0.249999 0 -6.75626e-07 0.249999 0 -6.79558e-07 0.249999 0 -6.83622e-07 0.249999 0 -6.87818e-07 0.249999 0 -6.90782e-07 0.249999 0 -6.9519e-07 0.249999 0 -7.01041e-07 0.249999 0 -7.08331e-07 0.249999 0 -7.17059e-07 0.249999 0 -7.27222e-07 0.249999 0 -7.38816e-07 0.249999 0 -7.51839e-07 0.249999 0 -7.66286e-07 0.249999 0 -7.82155e-07 0.249999 0 -7.99441e-07 0.249999 0 -8.1814e-07 0.249999 0 -8.38247e-07 0.249999 0 -8.59758e-07 0.249999 0 -8.82667e-07 0.249999 0 -9.06969e-07 0.249999 0 -9.32659e-07 0.249999 0 -9.59732e-07 0.249999 0 -9.8818e-07 0.249999 0 -1.018e-06 0.249999 0 -1.03306e-06 0.249999 0 -1.07067e-06 0.249999 0 -1.13076e-06 0.249999 0 -1.21327e-06 0.249999 0 -1.3181e-06 0.249999 0 -1.44519e-06 0.249999 0 -1.59445e-06 0.249999 0 -1.76579e-06 0.249999 0 -1.95912e-06 0.249999 0 -2.17435e-06 0.249999 0 -2.41138e-06 0.249999 0 -2.6701e-06 0.249999 0 -2.95042e-06 0.249999 0 -3.25223e-06 0.249999 0 -3.57541e-06 0.249999 0 -3.91985e-06 0.249999 0 -4.28543e-06 0.249999 0 -4.67203e-06 0.249999 0 -5.07952e-06 0.249998 0 -5.50779e-06 0.249998 0 -5.89177e-07 0.249999 0 -5.8916e-07 0.249999 0 -5.89182e-07 0.249999 0 -5.89242e-07 0.249999 0 -5.89341e-07 0.249999 0 -5.89477e-07 0.249999 0 -5.89652e-07 0.249999 0 -5.89866e-07 0.249999 0 -5.90119e-07 0.249999 0 -5.90411e-07 0.249999 0 -5.90741e-07 0.249999 0 -5.91111e-07 0.249999 0 -5.9152e-07 0.249999 0 -5.91969e-07 0.249999 0 -5.92457e-07 0.249999 0 -5.92984e-07 0.249999 0 -5.93552e-07 0.249999 0 -5.94159e-07 0.249999 0 -5.94805e-07 0.249999 0 -5.95492e-07 0.249999 0 -5.96218e-07 0.249999 0 -5.96923e-07 0.249999 0 -5.97691e-07 0.249999 0 -5.98523e-07 0.249999 0 -5.99419e-07 0.249999 0 -6.00379e-07 0.249999 0 -6.01403e-07 0.249999 0 -6.02492e-07 0.249999 0 -6.03644e-07 0.249999 0 -6.04861e-07 0.249999 0 -6.06143e-07 0.249999 0 -6.07489e-07 0.249999 0 -6.08899e-07 0.249999 0 -6.10373e-07 0.249999 0 -6.11912e-07 0.249999 0 -6.13514e-07 0.249999 0 -6.15181e-07 0.249999 0 -6.16912e-07 0.249999 0 -6.18707e-07 0.249999 0 -6.20566e-07 0.249999 0 -6.22489e-07 0.249999 0 -6.24103e-07 0.249999 0 -6.25843e-07 0.249999 0 -6.27708e-07 0.249999 0 -6.29698e-07 0.249999 0 -6.31813e-07 0.249999 0 -6.34053e-07 0.249999 0 -6.36417e-07 0.249999 0 -6.38907e-07 0.249999 0 -6.4152e-07 0.249999 0 -6.44258e-07 0.249999 0 -6.4712e-07 0.249999 0 -6.50105e-07 0.249999 0 -6.53214e-07 0.249999 0 -6.56445e-07 0.249999 0 -6.598e-07 0.249999 0 -6.63276e-07 0.249999 0 -6.66875e-07 0.249999 0 -6.70595e-07 0.249999 0 -6.74436e-07 0.249999 0 -6.78398e-07 0.249999 0 -6.81202e-07 0.249999 0 -6.85274e-07 0.249999 0 -6.90611e-07 0.249999 0 -6.97212e-07 0.249999 0 -7.05075e-07 0.249999 0 -7.14197e-07 0.249999 0 -7.24576e-07 0.249999 0 -7.36208e-07 0.249999 0 -7.49092e-07 0.249999 0 -7.63223e-07 0.249999 0 -7.78598e-07 0.249999 0 -7.95213e-07 0.249999 0 -8.13065e-07 0.249999 0 -8.32148e-07 0.249999 0 -8.5246e-07 0.249999 0 -8.73994e-07 0.249999 0 -8.96747e-07 0.249999 0 -9.20713e-07 0.249999 0 -9.45888e-07 0.249999 0 -9.72265e-07 0.249999 0 -9.85294e-07 0.249999 0 -1.01809e-06 0.249999 0 -1.07059e-06 0.249999 0 -1.14273e-06 0.249999 0 -1.23445e-06 0.249999 0 -1.34568e-06 0.249999 0 -1.47634e-06 0.249999 0 -1.62636e-06 0.249999 0 -1.79566e-06 0.249999 0 -1.98416e-06 0.249999 0 -2.19178e-06 0.249999 0 -2.41842e-06 0.249999 0 -2.66399e-06 0.249999 0 -2.92841e-06 0.249999 0 -3.21157e-06 0.249999 0 -3.51338e-06 0.249999 0 -3.83373e-06 0.249999 0 -4.17252e-06 0.249999 0 -4.52964e-06 0.249999 0 -4.90497e-06 0.249998 0 -5.82899e-07 0.249999 0 -5.82877e-07 0.249999 0 -5.82892e-07 0.249999 0 -5.82945e-07 0.249999 0 -5.83036e-07 0.249999 0 -5.83165e-07 0.249999 0 -5.83333e-07 0.249999 0 -5.83539e-07 0.249999 0 -5.83784e-07 0.249999 0 -5.84068e-07 0.249999 0 -5.84391e-07 0.249999 0 -5.84752e-07 0.249999 0 -5.85153e-07 0.249999 0 -5.85593e-07 0.249999 0 -5.86072e-07 0.249999 0 -5.86591e-07 0.249999 0 -5.87149e-07 0.249999 0 -5.87747e-07 0.249999 0 -5.88384e-07 0.249999 0 -5.89061e-07 0.249999 0 -5.89777e-07 0.249999 0 -5.9048e-07 0.249999 0 -5.91245e-07 0.249999 0 -5.92071e-07 0.249999 0 -5.92959e-07 0.249999 0 -5.93908e-07 0.249999 0 -5.94919e-07 0.249999 0 -5.95993e-07 0.249999 0 -5.97128e-07 0.249999 0 -5.98325e-07 0.249999 0 -5.99584e-07 0.249999 0 -6.00905e-07 0.249999 0 -6.02287e-07 0.249999 0 -6.03732e-07 0.249999 0 -6.05238e-07 0.249999 0 -6.06807e-07 0.249999 0 -6.08437e-07 0.249999 0 -6.10129e-07 0.249999 0 -6.11882e-07 0.249999 0 -6.13697e-07 0.249999 0 -6.15574e-07 0.249999 0 -6.17165e-07 0.249999 0 -6.18871e-07 0.249999 0 -6.20691e-07 0.249999 0 -6.22626e-07 0.249999 0 -6.24676e-07 0.249999 0 -6.2684e-07 0.249999 0 -6.29118e-07 0.249999 0 -6.3151e-07 0.249999 0 -6.34016e-07 0.249999 0 -6.36635e-07 0.249999 0 -6.39368e-07 0.249999 0 -6.42213e-07 0.249999 0 -6.45172e-07 0.249999 0 -6.48243e-07 0.249999 0 -6.51426e-07 0.249999 0 -6.54722e-07 0.249999 0 -6.58128e-07 0.249999 0 -6.61646e-07 0.249999 0 -6.65275e-07 0.249999 0 -6.69014e-07 0.249999 0 -6.71668e-07 0.249999 0 -6.75424e-07 0.249999 0 -6.80282e-07 0.249999 0 -6.86239e-07 0.249999 0 -6.93294e-07 0.249999 0 -7.01444e-07 0.249999 0 -7.10688e-07 0.249999 0 -7.21022e-07 0.249999 0 -7.32445e-07 0.249999 0 -7.44952e-07 0.249999 0 -7.58542e-07 0.249999 0 -7.73211e-07 0.249999 0 -7.88956e-07 0.249999 0 -8.05772e-07 0.249999 0 -8.23656e-07 0.249999 0 -8.42605e-07 0.249999 0 -8.62614e-07 0.249999 0 -8.83678e-07 0.249999 0 -9.05794e-07 0.249999 0 -9.28956e-07 0.249999 0 -9.40115e-07 0.249999 0 -9.68437e-07 0.249999 0 -1.01387e-06 0.249999 0 -1.07636e-06 0.249999 0 -1.15586e-06 0.249999 0 -1.2523e-06 0.249999 0 -1.36561e-06 0.249999 0 -1.49575e-06 0.249999 0 -1.64262e-06 0.249999 0 -1.80618e-06 0.249999 0 -1.98634e-06 0.249999 0 -2.18303e-06 0.249999 0 -2.39617e-06 0.249999 0 -2.62568e-06 0.249999 0 -2.87148e-06 0.249999 0 -3.13348e-06 0.249999 0 -3.41159e-06 0.249999 0 -3.70572e-06 0.249999 0 -4.01579e-06 0.249999 0 -4.34168e-06 0.249999 0 -5.76597e-07 0.249999 0 -5.76567e-07 0.249999 0 -5.76575e-07 0.249999 0 -5.7662e-07 0.249999 0 -5.76704e-07 0.249999 0 -5.76825e-07 0.249999 0 -5.76985e-07 0.249999 0 -5.77182e-07 0.249999 0 -5.77419e-07 0.249999 0 -5.77694e-07 0.249999 0 -5.78008e-07 0.249999 0 -5.7836e-07 0.249999 0 -5.78752e-07 0.249999 0 -5.79182e-07 0.249999 0 -5.79652e-07 0.249999 0 -5.80161e-07 0.249999 0 -5.80709e-07 0.249999 0 -5.81297e-07 0.249999 0 -5.81923e-07 0.249999 0 -5.8259e-07 0.249999 0 -5.83296e-07 0.249999 0 -5.83996e-07 0.249999 0 -5.84756e-07 0.249999 0 -5.85575e-07 0.249999 0 -5.86453e-07 0.249999 0 -5.8739e-07 0.249999 0 -5.88387e-07 0.249999 0 -5.89443e-07 0.249999 0 -5.90559e-07 0.249999 0 -5.91734e-07 0.249999 0 -5.92969e-07 0.249999 0 -5.94263e-07 0.249999 0 -5.95617e-07 0.249999 0 -5.9703e-07 0.249999 0 -5.98503e-07 0.249999 0 -6.00035e-07 0.249999 0 -6.01626e-07 0.249999 0 -6.03277e-07 0.249999 0 -6.04987e-07 0.249999 0 -6.06755e-07 0.249999 0 -6.08583e-07 0.249999 0 -6.10152e-07 0.249999 0 -6.11825e-07 0.249999 0 -6.13603e-07 0.249999 0 -6.15485e-07 0.249999 0 -6.17472e-07 0.249999 0 -6.19563e-07 0.249999 0 -6.21757e-07 0.249999 0 -6.24056e-07 0.249999 0 -6.26459e-07 0.249999 0 -6.28965e-07 0.249999 0 -6.31575e-07 0.249999 0 -6.34287e-07 0.249999 0 -6.37102e-07 0.249999 0 -6.4002e-07 0.249999 0 -6.43041e-07 0.249999 0 -6.46163e-07 0.249999 0 -6.49386e-07 0.249999 0 -6.52711e-07 0.249999 0 -6.56137e-07 0.249999 0 -6.59664e-07 0.249999 0 -6.62178e-07 0.249999 0 -6.65642e-07 0.249999 0 -6.70054e-07 0.249999 0 -6.75413e-07 0.249999 0 -6.81717e-07 0.249999 0 -6.88964e-07 0.249999 0 -6.97152e-07 0.249999 0 -7.0628e-07 0.249999 0 -7.16344e-07 0.249999 0 -7.27343e-07 0.249999 0 -7.39273e-07 0.249999 0 -7.52133e-07 0.249999 0 -7.65919e-07 0.249999 0 -7.80627e-07 0.249999 0 -7.96256e-07 0.249999 0 -8.12801e-07 0.249999 0 -8.30258e-07 0.249999 0 -8.48625e-07 0.249999 0 -8.67897e-07 0.249999 0 -8.8807e-07 0.249999 0 -8.9752e-07 0.249999 0 -9.21715e-07 0.249999 0 -9.60612e-07 0.249999 0 -1.01417e-06 0.249999 0 -1.08233e-06 0.249999 0 -1.16505e-06 0.249999 0 -1.26227e-06 0.249999 0 -1.37394e-06 0.249999 0 -1.50001e-06 0.249999 0 -1.6404e-06 0.249999 0 -1.79507e-06 0.249999 0 -1.96394e-06 0.249999 0 -2.14696e-06 0.249999 0 -2.34404e-06 0.249999 0 -2.55512e-06 0.249999 0 -2.78013e-06 0.249999 0 -3.01899e-06 0.249999 0 -3.27163e-06 0.249999 0 -3.53797e-06 0.249999 0 -3.81792e-06 0.249999 0 -5.7027e-07 0.249999 0 -5.70232e-07 0.249999 0 -5.70232e-07 0.249999 0 -5.70269e-07 0.249999 0 -5.70344e-07 0.249999 0 -5.70456e-07 0.249999 0 -5.70607e-07 0.249999 0 -5.70796e-07 0.249999 0 -5.71023e-07 0.249999 0 -5.71289e-07 0.249999 0 -5.71593e-07 0.249999 0 -5.71936e-07 0.249999 0 -5.72317e-07 0.249999 0 -5.72737e-07 0.249999 0 -5.73197e-07 0.249999 0 -5.73695e-07 0.249999 0 -5.74232e-07 0.249999 0 -5.74809e-07 0.249999 0 -5.75424e-07 0.249999 0 -5.76079e-07 0.249999 0 -5.76774e-07 0.249999 0 -5.7747e-07 0.249999 0 -5.78224e-07 0.249999 0 -5.79034e-07 0.249999 0 -5.79901e-07 0.249999 0 -5.80824e-07 0.249999 0 -5.81805e-07 0.249999 0 -5.82843e-07 0.249999 0 -5.83938e-07 0.249999 0 -5.8509e-07 0.249999 0 -5.86299e-07 0.249999 0 -5.87564e-07 0.249999 0 -5.88887e-07 0.249999 0 -5.90267e-07 0.249999 0 -5.91704e-07 0.249999 0 -5.93198e-07 0.249999 0 -5.94749e-07 0.249999 0 -5.96356e-07 0.249999 0 -5.9802e-07 0.249999 0 -5.99741e-07 0.249999 0 -6.01518e-07 0.249999 0 -6.03065e-07 0.249999 0 -6.04706e-07 0.249999 0 -6.06442e-07 0.249999 0 -6.08274e-07 0.249999 0 -6.102e-07 0.249999 0 -6.12221e-07 0.249999 0 -6.14336e-07 0.249999 0 -6.16546e-07 0.249999 0 -6.1885e-07 0.249999 0 -6.21249e-07 0.249999 0 -6.23741e-07 0.249999 0 -6.26326e-07 0.249999 0 -6.29005e-07 0.249999 0 -6.31777e-07 0.249999 0 -6.34642e-07 0.249999 0 -6.376e-07 0.249999 0 -6.40649e-07 0.249999 0 -6.43791e-07 0.249999 0 -6.47024e-07 0.249999 0 -6.50348e-07 0.249999 0 -6.52734e-07 0.249999 0 -6.55927e-07 0.249999 0 -6.59928e-07 0.249999 0 -6.64733e-07 0.249999 0 -6.70343e-07 0.249999 0 -6.76755e-07 0.249999 0 -6.83968e-07 0.249999 0 -6.9198e-07 0.249999 0 -7.00789e-07 0.249999 0 -7.10393e-07 0.249999 0 -7.2079e-07 0.249999 0 -7.31978e-07 0.249999 0 -7.43953e-07 0.249999 0 -7.56713e-07 0.249999 0 -7.70257e-07 0.249999 0 -7.8458e-07 0.249999 0 -7.99679e-07 0.249999 0 -8.15552e-07 0.249999 0 -8.32195e-07 0.249999 0 -8.49606e-07 0.249999 0 -8.57508e-07 0.249999 0 -8.77921e-07 0.249999 0 -9.10808e-07 0.249999 0 -9.56131e-07 0.249999 0 -1.01385e-06 0.249999 0 -1.08392e-06 0.249999 0 -1.1663e-06 0.249999 0 -1.26094e-06 0.249999 0 -1.3678e-06 0.249999 0 -1.48682e-06 0.249999 0 -1.61795e-06 0.249999 0 -1.76114e-06 0.249999 0 -1.91634e-06 0.249999 0 -2.08347e-06 0.249999 0 -2.26249e-06 0.249999 0 -2.45334e-06 0.249999 0 -2.65595e-06 0.249999 0 -2.87025e-06 0.249999 0 -3.09618e-06 0.249999 0 -3.33368e-06 0.249999 0 -5.63918e-07 0.249999 0 -5.63871e-07 0.249999 0 -5.63862e-07 0.249999 0 -5.6389e-07 0.249999 0 -5.63956e-07 0.249999 0 -5.64059e-07 0.249999 0 -5.64201e-07 0.249999 0 -5.6438e-07 0.249999 0 -5.64597e-07 0.249999 0 -5.64852e-07 0.249999 0 -5.65146e-07 0.249999 0 -5.65478e-07 0.249999 0 -5.65849e-07 0.249999 0 -5.66258e-07 0.249999 0 -5.66706e-07 0.249999 0 -5.67193e-07 0.249999 0 -5.67718e-07 0.249999 0 -5.68283e-07 0.249999 0 -5.68887e-07 0.249999 0 -5.69529e-07 0.249999 0 -5.70211e-07 0.249999 0 -5.70902e-07 0.249999 0 -5.71648e-07 0.249999 0 -5.72448e-07 0.249999 0 -5.73303e-07 0.249999 0 -5.74211e-07 0.249999 0 -5.75175e-07 0.249999 0 -5.76192e-07 0.249999 0 -5.77265e-07 0.249999 0 -5.78391e-07 0.249999 0 -5.79573e-07 0.249999 0 -5.80809e-07 0.249999 0 -5.82099e-07 0.249999 0 -5.83444e-07 0.249999 0 -5.84843e-07 0.249999 0 -5.86297e-07 0.249999 0 -5.87805e-07 0.249999 0 -5.89367e-07 0.249999 0 -5.90984e-07 0.249999 0 -5.92654e-07 0.249999 0 -5.94379e-07 0.249999 0 -5.95903e-07 0.249999 0 -5.97514e-07 0.249999 0 -5.9921e-07 0.249999 0 -6.00993e-07 0.249999 0 -6.02861e-07 0.249999 0 -6.04815e-07 0.249999 0 -6.06855e-07 0.249999 0 -6.0898e-07 0.249999 0 -6.1119e-07 0.249999 0 -6.13486e-07 0.249999 0 -6.15866e-07 0.249999 0 -6.18331e-07 0.249999 0 -6.2088e-07 0.249999 0 -6.23514e-07 0.249999 0 -6.26231e-07 0.249999 0 -6.29032e-07 0.249999 0 -6.31917e-07 0.249999 0 -6.34885e-07 0.249999 0 -6.37935e-07 0.249999 0 -6.41068e-07 0.249999 0 -6.43335e-07 0.249999 0 -6.4628e-07 0.249999 0 -6.49902e-07 0.249999 0 -6.542e-07 0.249999 0 -6.59172e-07 0.249999 0 -6.64817e-07 0.249999 0 -6.71135e-07 0.249999 0 -6.78123e-07 0.249999 0 -6.8578e-07 0.249999 0 -6.94103e-07 0.249999 0 -7.03092e-07 0.249999 0 -7.12744e-07 0.249999 0 -7.23057e-07 0.249999 0 -7.34029e-07 0.249999 0 -7.45658e-07 0.249999 0 -7.5794e-07 0.249999 0 -7.70875e-07 0.249999 0 -7.84458e-07 0.249999 0 -7.98687e-07 0.249999 0 -8.1356e-07 0.249999 0 -8.20077e-07 0.249999 0 -8.37052e-07 0.249999 0 -8.64457e-07 0.249999 0 -9.02259e-07 0.249999 0 -9.50425e-07 0.249999 0 -1.00892e-06 0.249999 0 -1.07771e-06 0.249999 0 -1.15675e-06 0.249999 0 -1.246e-06 0.249999 0 -1.34543e-06 0.249999 0 -1.45499e-06 0.249999 0 -1.57463e-06 0.249999 0 -1.70431e-06 0.249999 0 -1.84398e-06 0.249999 0 -1.99359e-06 0.249999 0 -2.15309e-06 0.249999 0 -2.32244e-06 0.249999 0 -2.50157e-06 0.249999 0 -2.69043e-06 0.249999 0 -2.88896e-06 0.249999 0 -5.57541e-07 0.249999 0 -5.57485e-07 0.249999 0 -5.57466e-07 0.249999 0 -5.57485e-07 0.249999 0 -5.57541e-07 0.249999 0 -5.57634e-07 0.249999 0 -5.57765e-07 0.249999 0 -5.57934e-07 0.249999 0 -5.5814e-07 0.249999 0 -5.58385e-07 0.249999 0 -5.58667e-07 0.249999 0 -5.58988e-07 0.249999 0 -5.59347e-07 0.249999 0 -5.59744e-07 0.249999 0 -5.6018e-07 0.249999 0 -5.60655e-07 0.249999 0 -5.61168e-07 0.249999 0 -5.6172e-07 0.249999 0 -5.6231e-07 0.249999 0 -5.6294e-07 0.249999 0 -5.63608e-07 0.249999 0 -5.64293e-07 0.249999 0 -5.6503e-07 0.249999 0 -5.65818e-07 0.249999 0 -5.66659e-07 0.249999 0 -5.67551e-07 0.249999 0 -5.68495e-07 0.249999 0 -5.69491e-07 0.249999 0 -5.70539e-07 0.249999 0 -5.71639e-07 0.249999 0 -5.72791e-07 0.249999 0 -5.73996e-07 0.249999 0 -5.75252e-07 0.249999 0 -5.76559e-07 0.249999 0 -5.77919e-07 0.249999 0 -5.79331e-07 0.249999 0 -5.80794e-07 0.249999 0 -5.8231e-07 0.249999 0 -5.83876e-07 0.249999 0 -5.85495e-07 0.249999 0 -5.87165e-07 0.249999 0 -5.88668e-07 0.249999 0 -5.90248e-07 0.249999 0 -5.91906e-07 0.249999 0 -5.93642e-07 0.249999 0 -5.95455e-07 0.249999 0 -5.97345e-07 0.249999 0 -5.99313e-07 0.249999 0 -6.01357e-07 0.249999 0 -6.03478e-07 0.249999 0 -6.05676e-07 0.249999 0 -6.0795e-07 0.249999 0 -6.10301e-07 0.249999 0 -6.12727e-07 0.249999 0 -6.1523e-07 0.249999 0 -6.17808e-07 0.249999 0 -6.20461e-07 0.249999 0 -6.2319e-07 0.249999 0 -6.25993e-07 0.249999 0 -6.2887e-07 0.249999 0 -6.31822e-07 0.249999 0 -6.33981e-07 0.249999 0 -6.367e-07 0.249999 0 -6.39977e-07 0.249999 0 -6.43812e-07 0.249999 0 -6.48204e-07 0.249999 0 -6.53151e-07 0.249999 0 -6.58653e-07 0.249999 0 -6.64708e-07 0.249999 0 -6.71315e-07 0.249999 0 -6.78472e-07 0.249999 0 -6.86178e-07 0.249999 0 -6.94432e-07 0.249999 0 -7.03231e-07 0.249999 0 -7.12573e-07 0.249999 0 -7.22458e-07 0.249999 0 -7.32882e-07 0.249999 0 -7.43843e-07 0.249999 0 -7.5534e-07 0.249999 0 -7.67371e-07 0.249999 0 -7.79932e-07 0.249999 0 -7.85224e-07 0.249999 0 -7.99107e-07 0.249999 0 -8.21556e-07 0.249999 0 -8.52546e-07 0.249999 0 -8.9205e-07 0.249999 0 -9.40038e-07 0.249999 0 -9.96481e-07 0.249999 0 -1.06135e-06 0.249999 0 -1.13461e-06 0.249999 0 -1.21622e-06 0.249999 0 -1.30616e-06 0.249999 0 -1.40439e-06 0.249999 0 -1.51087e-06 0.249999 0 -1.62555e-06 0.249999 0 -1.74841e-06 0.249999 0 -1.87939e-06 0.249999 0 -2.01847e-06 0.249999 0 -2.16558e-06 0.249999 0 -2.3207e-06 0.249999 0 -2.48377e-06 0.249999 0 -5.51139e-07 0.249999 0 -5.51073e-07 0.249999 0 -5.51044e-07 0.249999 0 -5.51053e-07 0.249999 0 -5.51098e-07 0.249999 0 -5.5118e-07 0.249999 0 -5.513e-07 0.249999 0 -5.51458e-07 0.249999 0 -5.51653e-07 0.249999 0 -5.51886e-07 0.249999 0 -5.52156e-07 0.249999 0 -5.52465e-07 0.249999 0 -5.52811e-07 0.249999 0 -5.53196e-07 0.249999 0 -5.53619e-07 0.249999 0 -5.5408e-07 0.249999 0 -5.5458e-07 0.249999 0 -5.55118e-07 0.249999 0 -5.55695e-07 0.249999 0 -5.5631e-07 0.249999 0 -5.56964e-07 0.249999 0 -5.57642e-07 0.249999 0 -5.58368e-07 0.249999 0 -5.59144e-07 0.249999 0 -5.59969e-07 0.249999 0 -5.60843e-07 0.249999 0 -5.61767e-07 0.249999 0 -5.6274e-07 0.249999 0 -5.63762e-07 0.249999 0 -5.64834e-07 0.249999 0 -5.65955e-07 0.249999 0 -5.67125e-07 0.249999 0 -5.68345e-07 0.249999 0 -5.69615e-07 0.249999 0 -5.70933e-07 0.249999 0 -5.72301e-07 0.249999 0 -5.73718e-07 0.249999 0 -5.75184e-07 0.249999 0 -5.76699e-07 0.249999 0 -5.78263e-07 0.249999 0 -5.79876e-07 0.249999 0 -5.81358e-07 0.249999 0 -5.8291e-07 0.249999 0 -5.84531e-07 0.249999 0 -5.86222e-07 0.249999 0 -5.87982e-07 0.249999 0 -5.89811e-07 0.249999 0 -5.9171e-07 0.249999 0 -5.93678e-07 0.249999 0 -5.95715e-07 0.249999 0 -5.9782e-07 0.249999 0 -5.99994e-07 0.249999 0 -6.02236e-07 0.249999 0 -6.04547e-07 0.249999 0 -6.06926e-07 0.249999 0 -6.09372e-07 0.249999 0 -6.11886e-07 0.249999 0 -6.14467e-07 0.249999 0 -6.17115e-07 0.249999 0 -6.1983e-07 0.249999 0 -6.22611e-07 0.249999 0 -6.24672e-07 0.249999 0 -6.27187e-07 0.249999 0 -6.30153e-07 0.249999 0 -6.3357e-07 0.249999 0 -6.37438e-07 0.249999 0 -6.41756e-07 0.249999 0 -6.46521e-07 0.249999 0 -6.51735e-07 0.249999 0 -6.57395e-07 0.249999 0 -6.63499e-07 0.249999 0 -6.70048e-07 0.249999 0 -6.7704e-07 0.249999 0 -6.84472e-07 0.249999 0 -6.92345e-07 0.249999 0 -7.00655e-07 0.249999 0 -7.09402e-07 0.249999 0 -7.18584e-07 0.249999 0 -7.28199e-07 0.249999 0 -7.38245e-07 0.249999 0 -7.4872e-07 0.249999 0 -7.52949e-07 0.249999 0 -7.64084e-07 0.249999 0 -7.82104e-07 0.249999 0 -8.0699e-07 0.249999 0 -8.3872e-07 0.249999 0 -8.77271e-07 0.249999 0 -9.2262e-07 0.249999 0 -9.74742e-07 0.249999 0 -1.03361e-06 0.249999 0 -1.0992e-06 0.249999 0 -1.17148e-06 0.249999 0 -1.25043e-06 0.249999 0 -1.33601e-06 0.249999 0 -1.42819e-06 0.249999 0 -1.52694e-06 0.249999 0 -1.63223e-06 0.249999 0 -1.74403e-06 0.249999 0 -1.8623e-06 0.249999 0 -1.987e-06 0.249999 0 -2.1181e-06 0.249999 0 -5.44711e-07 0.249999 0 -5.44635e-07 0.249999 0 -5.44596e-07 0.249999 0 -5.44593e-07 0.249999 0 -5.44627e-07 0.249999 0 -5.44699e-07 0.249999 0 -5.44807e-07 0.249999 0 -5.44952e-07 0.249999 0 -5.45135e-07 0.249999 0 -5.45355e-07 0.249999 0 -5.45613e-07 0.249999 0 -5.45909e-07 0.249999 0 -5.46242e-07 0.249999 0 -5.46614e-07 0.249999 0 -5.47023e-07 0.249999 0 -5.4747e-07 0.249999 0 -5.47956e-07 0.249999 0 -5.48479e-07 0.249999 0 -5.49041e-07 0.249999 0 -5.49642e-07 0.249999 0 -5.5028e-07 0.249999 0 -5.50949e-07 0.249999 0 -5.51663e-07 0.249999 0 -5.52425e-07 0.249999 0 -5.53233e-07 0.249999 0 -5.54088e-07 0.249999 0 -5.54989e-07 0.249999 0 -5.55938e-07 0.249999 0 -5.56933e-07 0.249999 0 -5.57974e-07 0.249999 0 -5.59063e-07 0.249999 0 -5.60198e-07 0.249999 0 -5.6138e-07 0.249999 0 -5.62609e-07 0.249999 0 -5.63884e-07 0.249999 0 -5.65206e-07 0.249999 0 -5.66575e-07 0.249999 0 -5.6799e-07 0.249999 0 -5.69452e-07 0.249999 0 -5.70959e-07 0.249999 0 -5.72514e-07 0.249999 0 -5.73975e-07 0.249999 0 -5.75498e-07 0.249999 0 -5.77084e-07 0.249999 0 -5.78732e-07 0.249999 0 -5.80442e-07 0.249999 0 -5.82213e-07 0.249999 0 -5.84047e-07 0.249999 0 -5.85942e-07 0.249999 0 -5.87899e-07 0.249999 0 -5.89918e-07 0.249999 0 -5.91997e-07 0.249999 0 -5.94138e-07 0.249999 0 -5.96339e-07 0.249999 0 -5.98601e-07 0.249999 0 -6.00923e-07 0.249999 0 -6.03306e-07 0.249999 0 -6.05749e-07 0.249999 0 -6.08251e-07 0.249999 0 -6.10813e-07 0.249999 0 -6.13434e-07 0.249999 0 -6.15409e-07 0.249999 0 -6.17741e-07 0.249999 0 -6.20429e-07 0.249999 0 -6.23474e-07 0.249999 0 -6.26875e-07 0.249999 0 -6.30631e-07 0.249999 0 -6.3474e-07 0.249999 0 -6.39203e-07 0.249999 0 -6.44018e-07 0.249999 0 -6.49184e-07 0.249999 0 -6.54701e-07 0.249999 0 -6.60567e-07 0.249999 0 -6.66781e-07 0.249999 0 -6.73342e-07 0.249999 0 -6.80249e-07 0.249999 0 -6.875e-07 0.249999 0 -6.95095e-07 0.249999 0 -7.03031e-07 0.249999 0 -7.11307e-07 0.249999 0 -7.19922e-07 0.249999 0 -7.23249e-07 0.249999 0 -7.3198e-07 0.249999 0 -7.46098e-07 0.249999 0 -7.65588e-07 0.249999 0 -7.90434e-07 0.249999 0 -8.20617e-07 0.249999 0 -8.56121e-07 0.249999 0 -8.96924e-07 0.249999 0 -9.43008e-07 0.249999 0 -9.94351e-07 0.249999 0 -1.05093e-06 0.249999 0 -1.11273e-06 0.249999 0 -1.17972e-06 0.249999 0 -1.25188e-06 0.249999 0 -1.32918e-06 0.249999 0 -1.4116e-06 0.249999 0 -1.49912e-06 0.249999 0 -1.5917e-06 0.249999 0 -1.68932e-06 0.249999 0 -1.79195e-06 0.249999 0 -5.38259e-07 0.249999 0 -5.38172e-07 0.249999 0 -5.38121e-07 0.249999 0 -5.38107e-07 0.249999 0 -5.38129e-07 0.249999 0 -5.38188e-07 0.249999 0 -5.38284e-07 0.249999 0 -5.38417e-07 0.249999 0 -5.38587e-07 0.249999 0 -5.38794e-07 0.249999 0 -5.39038e-07 0.249999 0 -5.3932e-07 0.249999 0 -5.3964e-07 0.249999 0 -5.39997e-07 0.249999 0 -5.40391e-07 0.249999 0 -5.40824e-07 0.249999 0 -5.41294e-07 0.249999 0 -5.41803e-07 0.249999 0 -5.42349e-07 0.249999 0 -5.42933e-07 0.249999 0 -5.43556e-07 0.249999 0 -5.44214e-07 0.249999 0 -5.44916e-07 0.249999 0 -5.45662e-07 0.249999 0 -5.46451e-07 0.249999 0 -5.47285e-07 0.249999 0 -5.48163e-07 0.249999 0 -5.49085e-07 0.249999 0 -5.50051e-07 0.249999 0 -5.51062e-07 0.249999 0 -5.52116e-07 0.249999 0 -5.53214e-07 0.249999 0 -5.54357e-07 0.249999 0 -5.55543e-07 0.249999 0 -5.56773e-07 0.249999 0 -5.58048e-07 0.249999 0 -5.59366e-07 0.249999 0 -5.60728e-07 0.249999 0 -5.62134e-07 0.249999 0 -5.63583e-07 0.249999 0 -5.65077e-07 0.249999 0 -5.66517e-07 0.249999 0 -5.68014e-07 0.249999 0 -5.69565e-07 0.249999 0 -5.71172e-07 0.249999 0 -5.72834e-07 0.249999 0 -5.74552e-07 0.249999 0 -5.76324e-07 0.249999 0 -5.78151e-07 0.249999 0 -5.80033e-07 0.249999 0 -5.81969e-07 0.249999 0 -5.8396e-07 0.249999 0 -5.86004e-07 0.249999 0 -5.88103e-07 0.249999 0 -5.90256e-07 0.249999 0 -5.92463e-07 0.249999 0 -5.94722e-07 0.249999 0 -5.97035e-07 0.249999 0 -5.99401e-07 0.249999 0 -6.0182e-07 0.249999 0 -6.04292e-07 0.249999 0 -6.0619e-07 0.249999 0 -6.08361e-07 0.249999 0 -6.10806e-07 0.249999 0 -6.13524e-07 0.249999 0 -6.16514e-07 0.249999 0 -6.19776e-07 0.249999 0 -6.23309e-07 0.249999 0 -6.27112e-07 0.249999 0 -6.31184e-07 0.249999 0 -6.35526e-07 0.249999 0 -6.40136e-07 0.249999 0 -6.45013e-07 0.249999 0 -6.50156e-07 0.249999 0 -6.55565e-07 0.249999 0 -6.61239e-07 0.249999 0 -6.67175e-07 0.249999 0 -6.73375e-07 0.249999 0 -6.79835e-07 0.249999 0 -6.86556e-07 0.249999 0 -6.93535e-07 0.249999 0 -6.96123e-07 0.249999 0 -7.02793e-07 0.249999 0 -7.13535e-07 0.249999 0 -7.28338e-07 0.249999 0 -7.47188e-07 0.249999 0 -7.70073e-07 0.249999 0 -7.96978e-07 0.249999 0 -8.2789e-07 0.249999 0 -8.62794e-07 0.249999 0 -9.01674e-07 0.249999 0 -9.44513e-07 0.249999 0 -9.91296e-07 0.249999 0 -1.04201e-06 0.249999 0 -1.09662e-06 0.249999 0 -1.15513e-06 0.249999 0 -1.21751e-06 0.249999 0 -1.28374e-06 0.249999 0 -1.3538e-06 0.249999 0 -1.42767e-06 0.249999 0 -1.50533e-06 0.249999 0 -5.31782e-07 0.249999 0 -5.31683e-07 0.249999 0 -5.3162e-07 0.249999 0 -5.31594e-07 0.249999 0 -5.31604e-07 0.249999 0 -5.3165e-07 0.249999 0 -5.31732e-07 0.249999 0 -5.31852e-07 0.249999 0 -5.32008e-07 0.249999 0 -5.32201e-07 0.249999 0 -5.32432e-07 0.249999 0 -5.32699e-07 0.249999 0 -5.33004e-07 0.249999 0 -5.33345e-07 0.249999 0 -5.33725e-07 0.249999 0 -5.34142e-07 0.249999 0 -5.34596e-07 0.249999 0 -5.35088e-07 0.249999 0 -5.35618e-07 0.249999 0 -5.36186e-07 0.249999 0 -5.36791e-07 0.249999 0 -5.37437e-07 0.249999 0 -5.38125e-07 0.249999 0 -5.38854e-07 0.249999 0 -5.39624e-07 0.249999 0 -5.40435e-07 0.249999 0 -5.41288e-07 0.249999 0 -5.42183e-07 0.249999 0 -5.43118e-07 0.249999 0 -5.44095e-07 0.249999 0 -5.45113e-07 0.249999 0 -5.46173e-07 0.249999 0 -5.47274e-07 0