<?xml version="1.0"?> 
<VTKFile type="StructuredGrid" version="0.1"> 
<StructuredGrid WholeExtent="0 100 0 100 0 0"> 
<Piece Extent="0 100 0 100 0 0"> 
<PointData Vectors="Mechanisum">
<DataArray type="Float32" Name="Mechanisum" format="ascii" NumberOfComponents="3"> 
0.197702 3.06416e-11 0 0.19802 0.00265616 0 0.198173 0.00547119 0 0.198161 0.00844554 0 0.197984 0.0115796 0 0.19764 0.0148739 0 0.197129 0.0183286 0 0.196451 0.0219442 0 0.195605 0.0257209 0 0.194589 0.029659 0 0.193405 0.0337589 0 0.192051 0.0380207 0 0.190526 0.0424446 0 0.18883 0.0470308 0 0.186963 0.0517794 0 0.184925 0.0566906 0 0.182714 0.0617644 0 0.180331 0.0670008 0 0.177776 0.0723999 0 0.175047 0.0779618 0 0.172145 0.0836862 0 0.167392 0.0904635 0 0.162576 0.0971564 0 0.157699 0.103764 0 0.15276 0.110286 0 0.147759 0.116721 0 0.142698 0.123069 0 0.137576 0.129328 0 0.132393 0.135497 0 0.12715 0.141577 0 0.121848 0.147566 0 0.116486 0.153464 0 0.111066 0.159269 0 0.105587 0.164982 0 0.10005 0.170601 0 0.0944553 0.176126 0 0.0888036 0.181555 0 0.0830952 0.186889 0 0.0773305 0.192127 0 0.0715101 0.197268 0 0.0656344 0.202312 0 0.0609637 0.206209 0 0.056469 0.209931 0 0.0521509 0.213477 0 0.0480099 0.216847 0 0.0440465 0.220041 0 0.0402612 0.223058 0 0.0366545 0.225897 0 0.0332267 0.228559 0 0.0299782 0.231044 0 0.0269094 0.23335 0 0.0240205 0.235477 0 0.0213117 0.237427 0 0.0187835 0.239197 0 0.0164358 0.240789 0 0.014269 0.242201 0 0.012283 0.243435 0 0.0104781 0.24449 0 0.00885431 0.245366 0 0.00741158 0.246063 0 0.00614995 0.246581 0 0.0055214 0.246942 0 0.00492759 0.247283 0 0.00436855 0.247604 0 0.00384428 0.247905 0 0.0033548 0.248185 0 0.00290009 0.248444 0 0.00248016 0.248683 0 0.00209499 0.248902 0 0.00174456 0.2491 0 0.00142883 0.249278 0 0.00114778 0.249435 0 0.000901369 0.249573 0 0.000689543 0.249689 0 0.000512253 0.249786 0 0.000369437 0.249862 0 0.000261031 0.249918 0 0.000186962 0.249954 0 0.000147152 0.24997 0 0.000141516 0.249965 0 0.000169963 0.249941 0 0.000152703 0.249947 0 0.000136407 0.249953 0 0.000121075 0.249959 0 0.000106705 0.249964 0 9.32947e-05 0.249969 0 8.08435e-05 0.249974 0 6.93487e-05 0.249978 0 5.88082e-05 0.249982 0 4.92198e-05 0.249985 0 4.05808e-05 0.249988 0 3.28887e-05 0.249991 0 2.61405e-05 0.249993 0 2.03333e-05 0.249995 0 1.5464e-05 0.249997 0 1.15292e-05 0.249998 0 8.52547e-06 0.249999 0 6.44922e-06 0.25 0 5.29667e-06 0.25 0 5.06392e-06 0.25 0 5.74692e-06 0.249999 0 0.195908 2.35826e-11 0 0.196154 0.00279241 0 0.196222 0.00574992 0 0.196113 0.00887298 0 0.195825 0.012162 0 0.195358 0.0156175 0 0.194711 0.0192397 0 0.193883 0.023029 0 0.192874 0.0269858 0 0.191683 0.0311103 0 0.19031 0.0354027 0 0.188754 0.0398634 0 0.187014 0.0444925 0 0.18509 0.0492902 0 0.182982 0.0542566 0 0.180689 0.0593918 0 0.17821 0.0646959 0 0.175546 0.070169 0 0.172696 0.0758111 0 0.16966 0.0816222 0 0.166437 0.0876021 0 0.161461 0.0945963 0 0.156449 0.101481 0 0.1514 0.108256 0 0.146315 0.114919 0 0.141194 0.121471 0 0.136038 0.127909 0 0.130847 0.134234 0 0.125621 0.140444 0 0.120361 0.146539 0 0.115067 0.152517 0 0.10974 0.158379 0 0.10438 0.164123 0 0.0989881 0.169748 0 0.0935637 0.175254 0 0.0881079 0.18064 0 0.0826209 0.185905 0 0.0771034 0.191049 0 0.0715558 0.196072 0 0.0659785 0.200971 0 0.0603721 0.205748 0 0.0560024 0.209413 0 0.0518015 0.212911 0 0.0477697 0.216242 0 0.0439077 0.219405 0 0.0402158 0.222399 0 0.0366945 0.225225 0 0.0333443 0.227882 0 0.0301654 0.23037 0 0.0271583 0.232688 0 0.0243231 0.234836 0 0.0216603 0.236815 0 0.01917 0.238623 0 0.0168525 0.240261 0 0.0147079 0.241728 0 0.0127364 0.243025 0 0.0109381 0.244151 0 0.009313 0.245107 0 0.00786126 0.245892 0 0.00658284 0.246507 0 0.00547772 0.246951 0 0.00491743 0.247274 0 0.00438812 0.247578 0 0.00388983 0.247865 0 0.00342256 0.248133 0 0.00298631 0.248382 0 0.00258109 0.248614 0 0.00220688 0.248827 0 0.00186368 0.249022 0 0.00155146 0.249199 0 0.0012702 0.249358 0 0.00101988 0.249498 0 0.000800445 0.24962 0 0.000611868 0.249725 0 0.000454097 0.24981 0 0.000327081 0.249878 0 0.00023076 0.249928 0 0.000165071 0.24996 0 0.000129944 0.249974 0 0.000125305 0.24997 0 0.000151074 0.249948 0 0.000135722 0.249953 0 0.000121228 0.249959 0 0.000107592 0.249964 0 9.48113e-05 0.249968 0 8.28852e-05 0.249973 0 7.18119e-05 0.249977 0 6.15896e-05 0.24998 0 5.22165e-05 0.249984 0 4.36904e-05 0.249987 0 3.60092e-05 0.249989 0 2.91705e-05 0.249992 0 2.31717e-05 0.249994 0 1.80104e-05 0.249996 0 1.36837e-05 0.249997 0 1.01886e-05 0.249998 0 7.52218e-06 0.249999 0 5.68121e-06 0.25 0 4.66238e-06 0.25 0 4.46224e-06 0.25 0 5.07723e-06 0.25 0 0.194063 1.6904e-11 0 0.194235 0.00294519 0 0.194219 0.00606011 0 0.194012 0.00934522 0 0.193615 0.012801 0 0.193027 0.0164277 0 0.192246 0.0202259 0 0.191272 0.0241958 0 0.190105 0.0283378 0 0.188744 0.0326521 0 0.187188 0.0371391 0 0.185437 0.0417989 0 0.18349 0.0466317 0 0.181346 0.0516377 0 0.179006 0.0568171 0 0.176468 0.0621699 0 0.173733 0.0676962 0 0.1708 0.0733961 0 0.167668 0.0792696 0 0.164337 0.0853166 0 0.160808 0.0915371 0 0.15563 0.0987261 0 0.15044 0.105782 0 0.145237 0.112705 0 0.140023 0.119492 0 0.134797 0.126144 0 0.12956 0.132658 0 0.124313 0.139036 0 0.119055 0.145274 0 0.113788 0.151373 0 0.108512 0.157332 0 0.103227 0.16315 0 0.097934 0.168826 0 0.0926333 0.17436 0 0.0873253 0.17975 0 0.0820106 0.184996 0 0.0766896 0.190097 0 0.0713629 0.195053 0 0.0660308 0.199863 0 0.0606939 0.204526 0 0.0553527 0.209041 0 0.0512735 0.212482 0 0.0473556 0.215763 0 0.0435996 0.218886 0 0.0400059 0.221848 0 0.036575 0.22465 0 0.0333073 0.227292 0 0.0302031 0.229773 0 0.0272628 0.232092 0 0.0244867 0.234251 0 0.021875 0.236248 0 0.0194281 0.238083 0 0.0171462 0.239756 0 0.0150293 0.241266 0 0.0130778 0.242615 0 0.0112917 0.243802 0 0.00967105 0.244826 0 0.00821602 0.245688 0 0.00692662 0.246387 0 0.00580284 0.246924 0 0.00484465 0.2473 0 0.00434865 0.247586 0 0.00388011 0.247856 0 0.00343905 0.24811 0 0.00302546 0.248347 0 0.00263936 0.248569 0 0.00228074 0.248774 0 0.0019496 0.248963 0 0.00164593 0.249136 0 0.00136971 0.249292 0 0.00112091 0.249433 0 0.000899523 0.249557 0 0.000705502 0.249665 0 0.000538816 0.249758 0 0.000399423 0.249834 0 0.000287277 0.249894 0 0.000202327 0.249938 0 0.000144517 0.249966 0 0.000113785 0.249978 0 0.000110068 0.249974 0 0.000133293 0.249954 0 0.000119738 0.249959 0 0.000106941 0.249964 0 9.49008e-05 0.249968 0 8.36168e-05 0.249972 0 7.30875e-05 0.249976 0 6.33115e-05 0.249979 0 5.42872e-05 0.249983 0 4.6013e-05 0.249986 0 3.84871e-05 0.249988 0 3.17075e-05 0.249991 0 2.56722e-05 0.249993 0 2.0379e-05 0.249995 0 1.58256e-05 0.249996 0 1.20096e-05 0.249998 0 8.92836e-06 0.249999 0 6.57929e-06 0.249999 0 4.9596e-06 0.25 0 4.06637e-06 0.25 0 3.8966e-06 0.25 0 4.44716e-06 0.25 0 0.192166 1.06057e-11 0 0.192264 0.00311449 0 0.192162 0.00640176 0 0.191859 0.00986225 0 0.191354 0.0134964 0 0.190646 0.0173046 0 0.189734 0.0212872 0 0.188619 0.0254445 0 0.187298 0.0297769 0 0.185772 0.0342846 0 0.184039 0.0389679 0 0.1821 0.0438271 0 0.179953 0.0488622 0 0.177599 0.0540734 0 0.175036 0.059461 0 0.172264 0.0650249 0 0.169282 0.0707652 0 0.166092 0.076682 0 0.162691 0.0827753 0 0.159079 0.089045 0 0.155257 0.095491 0 0.149898 0.102853 0 0.144549 0.11006 0 0.13921 0.117111 0 0.133883 0.124004 0 0.128567 0.13074 0 0.123263 0.137316 0 0.117973 0.143733 0 0.112695 0.149988 0 0.107431 0.156081 0 0.102181 0.162012 0 0.0969461 0.167779 0 0.0917263 0.173381 0 0.0865222 0.178819 0 0.0813344 0.18409 0 0.0761633 0.189195 0 0.0710094 0.194132 0 0.0658733 0.198901 0 0.0607554 0.203501 0 0.0556562 0.207932 0 0.0505762 0.212192 0 0.0467766 0.215416 0 0.0431312 0.218488 0 0.0396403 0.221409 0 0.0363045 0.224177 0 0.033124 0.226794 0 0.0300994 0.229258 0 0.0272308 0.231569 0 0.0245187 0.233727 0 0.0219633 0.235732 0 0.0195649 0.237583 0 0.0173238 0.239281 0 0.01524 0.240825 0 0.0133138 0.242214 0 0.0115453 0.24345 0 0.00993463 0.244532 0 0.00848189 0.245459 0 0.00718711 0.246232 0 0.00605033 0.246851 0 0.00507153 0.247316 0 0.00425068 0.247627 0 0.00381503 0.247879 0 0.00340352 0.248116 0 0.00301616 0.24834 0 0.00265296 0.248549 0 0.00231392 0.248743 0 0.00199904 0.248924 0 0.00170832 0.24909 0 0.00144174 0.249242 0 0.0011993 0.24938 0 0.000980962 0.249503 0 0.000786717 0.249612 0 0.000616535 0.249708 0 0.000470383 0.249788 0 0.000348226 0.249855 0 0.000250024 0.249908 0 0.000175731 0.249946 0 0.000125299 0.249971 0 9.86751e-05 0.249981 0 9.58026e-05 0.249977 0 0.00011662 0.24996 0 0.00010475 0.249964 0 9.35438e-05 0.249968 0 8.3001e-05 0.249972 0 7.31205e-05 0.249976 0 6.39012e-05 0.249979 0 5.53419e-05 0.249982 0 4.74412e-05 0.249985 0 4.01976e-05 0.249988 0 3.36097e-05 0.24999 0 2.76757e-05 0.249992 0 2.23939e-05 0.249994 0 1.77622e-05 0.249995 0 1.37789e-05 0.249997 0 1.04417e-05 0.249998 0 7.74845e-06 0.249999 0 5.69681e-06 0.25 0 4.28439e-06 0.25 0 3.50865e-06 0.25 0 3.367e-06 0.25 0 3.85672e-06 0.25 0 0.190217 4.68761e-12 0 0.19024 0.00330033 0 0.190053 0.00677487 0 0.189653 0.0104241 0 0.189041 0.0142483 0 0.188216 0.018248 0 0.187177 0.0224235 0 0.185922 0.026775 0 0.184452 0.031303 0 0.182766 0.0360077 0 0.180863 0.0408893 0 0.178743 0.0459479 0 0.176404 0.0511839 0 0.173847 0.0565973 0 0.17107 0.0621882 0 0.168074 0.0679567 0 0.164858 0.0739028 0 0.161422 0.0800267 0 0.157765 0.0863282 0 0.153886 0.0928073 0 0.149786 0.099464 0 0.144265 0.106977 0 0.138776 0.114314 0 0.133319 0.121474 0 0.127895 0.128456 0 0.122505 0.13526 0 0.117148 0.141883 0 0.111827 0.148325 0 0.10654 0.154585 0 0.101289 0.160662 0 0.0960748 0.166556 0 0.0908972 0.172264 0 0.0857569 0.177788 0 0.0806546 0.183124 0 0.0755906 0.188274 0 0.0705656 0.193236 0 0.06558 0.198009 0 0.0606344 0.202592 0 0.0557292 0.206986 0 0.0508649 0.21119 0 0.0460421 0.215202 0 0.0425115 0.218215 0 0.0391279 0.221085 0 0.0358916 0.223811 0 0.032803 0.226393 0 0.0298625 0.228831 0 0.0270705 0.231124 0 0.0244272 0.233272 0 0.021933 0.235275 0 0.019588 0.237132 0 0.0173927 0.238844 0 0.015347 0.24041 0 0.0134514 0.24183 0 0.0117057 0.243105 0 0.0101103 0.244233 0 0.00866524 0.245215 0 0.00737051 0.246051 0 0.0062262 0.24674 0 0.00523232 0.247284 0 0.00438886 0.247681 0 0.00369578 0.247933 0 0.00331653 0.248152 0 0.00295832 0.24836 0 0.00262115 0.248554 0 0.00230504 0.248737 0 0.00200998 0.248906 0 0.00173597 0.249064 0 0.00148301 0.249209 0 0.0012511 0.249341 0 0.00104021 0.249461 0 0.000850334 0.249569 0 0.000681451 0.249664 0 0.000533538 0.249747 0 0.000406565 0.249817 0 0.000300504 0.249875 0 0.000215318 0.249921 0 0.000150969 0.249954 0 0.000107416 0.249975 0 8.46124e-05 0.249984 0 8.25092e-05 0.249981 0 0.000101054 0.249965 0 9.07569e-05 0.249969 0 8.10366e-05 0.249972 0 7.18919e-05 0.249976 0 6.3322e-05 0.249979 0 5.5326e-05 0.249982 0 4.79028e-05 0.249985 0 4.10513e-05 0.249987 0 3.47701e-05 0.249989 0 2.90581e-05 0.249991 0 2.39136e-05 0.249993 0 1.93353e-05 0.249995 0 1.53214e-05 0.249996 0 1.18702e-05 0.249997 0 8.98002e-06 0.249998 0 6.64885e-06 0.249999 0 4.87472e-06 0.25 0 3.65557e-06 0.25 0 2.98922e-06 0.25 0 2.87344e-06 0.25 0 3.30589e-06 0.25 0 0.188217 -8.50166e-13 0 0.188164 0.0035027 0 0.18789 0.00717944 0 0.187395 0.0110307 0 0.186677 0.0150567 0 0.185737 0.019258 0 0.184572 0.0236348 0 0.183183 0.0281874 0 0.181568 0.0329162 0 0.179728 0.0378213 0 0.17766 0.042903 0 0.175365 0.0481614 0 0.172842 0.0535968 0 0.170091 0.0592091 0 0.167111 0.0649986 0 0.163901 0.0709652 0 0.160461 0.077109 0 0.156791 0.0834301 0 0.15289 0.0899283 0 0.148758 0.0966036 0 0.144394 0.103456 0 0.138732 0.111098 0 0.133121 0.118544 0 0.127564 0.125795 0 0.122059 0.132848 0 0.11661 0.139703 0 0.111214 0.146358 0 0.105874 0.152813 0 0.100591 0.159066 0 0.0953632 0.165117 0 0.0901929 0.170964 0 0.0850802 0.176607 0 0.0800258 0.182045 0 0.0750301 0.187277 0 0.0700938 0.192302 0 0.0652173 0.197119 0 0.0604011 0.201728 0 0.0556459 0.206129 0 0.050952 0.210319 0 0.0463199 0.214299 0 0.0417503 0.218069 0 0.038478 0.220879 0 0.0353455 0.223554 0 0.0323531 0.226093 0 0.0295012 0.228495 0 0.0267902 0.23076 0 0.0242204 0.232889 0 0.021792 0.234881 0 0.0195053 0.236735 0 0.0173606 0.238451 0 0.015358 0.24003 0 0.0134978 0.24147 0 0.0117801 0.242773 0 0.0102051 0.243937 0 0.00877281 0.244964 0 0.00748337 0.245852 0 0.00633682 0.246601 0 0.00533321 0.247213 0 0.00447253 0.247686 0 0.00375478 0.24802 0 0.0031799 0.248217 0 0.00285311 0.248407 0 0.00254447 0.248586 0 0.00225398 0.248754 0 0.00198166 0.248911 0 0.0017275 0.249058 0 0.0014915 0.249194 0 0.00127366 0.249319 0 0.00107398 0.249433 0 0.000892437 0.249537 0 0.000729022 0.24963 0 0.000583718 0.249712 0 0.000456504 0.249783 0 0.000347358 0.249844 0 0.000256253 0.249894 0 0.000183158 0.249933 0 0.000128041 0.249962 0 9.08673e-05 0.24998 0 7.15964e-05 0.249987 0 7.01867e-05 0.249984 0 8.65931e-05 0.24997 0 7.77584e-05 0.249973 0 6.94185e-05 0.249976 0 6.15729e-05 0.249979 0 5.42209e-05 0.249982 0 4.73615e-05 0.249985 0 4.0994e-05 0.249987 0 3.51173e-05 0.249989 0 2.97303e-05 0.249991 0 2.48321e-05 0.249993 0 2.04212e-05 0.249994 0 1.64964e-05 0.249996 0 1.30563e-05 0.249997 0 1.00996e-05 0.249998 0 7.62449e-06 0.249999 0 5.62954e-06 0.249999 0 4.11301e-06 0.25 0 3.07313e-06 0.25 0 2.50807e-06 0.25 0 2.41592e-06 0.25 0 2.79469e-06 0.25 0 0.186166 -6.00765e-12 0 0.186035 0.00372159 0 0.185674 0.00761547 0 0.185084 0.011682 0 0.184262 0.0159216 0 0.183208 0.0203345 0 0.181921 0.0249211 0 0.180401 0.0296817 0 0.178646 0.0346164 0 0.176656 0.0397255 0 0.17443 0.0450091 0 0.171968 0.0504675 0 0.169268 0.0561008 0 0.166331 0.061909 0 0.163156 0.0678922 0 0.159743 0.0740505 0 0.15609 0.0803838 0 0.152198 0.0868922 0 0.148066 0.0935755 0 0.143693 0.100434 0 0.139081 0.107467 0 0.133297 0.115216 0 0.127584 0.122752 0 0.121943 0.130073 0 0.116376 0.13718 0 0.110882 0.14407 0 0.105461 0.150743 0 0.100116 0.157197 0 0.0948461 0.163431 0 0.0896522 0.169445 0 0.0845349 0.175238 0 0.0794949 0.180807 0 0.0745326 0.186154 0 0.0696487 0.191277 0 0.0648437 0.196174 0 0.0601181 0.200846 0 0.0554726 0.205291 0 0.0509075 0.209509 0 0.0464235 0.2135 0 0.0420209 0.217261 0 0.0377003 0.220794 0 0.0346757 0.223409 0 0.0317837 0.225896 0 0.0290247 0.228254 0 0.0263991 0.230483 0 0.0239071 0.232583 0 0.021549 0.234554 0 0.0193251 0.236395 0 0.0172357 0.238107 0 0.0152809 0.239689 0 0.0134609 0.24114 0 0.011776 0.242461 0 0.0102262 0.243652 0 0.00881172 0.244712 0 0.00753259 0.245642 0 0.00638891 0.246442 0 0.00538072 0.24711 0 0.00450805 0.247649 0 0.00377089 0.248056 0 0.00316922 0.248333 0 0.00270299 0.24848 0 0.00242472 0.248642 0 0.00216193 0.248795 0 0.00191462 0.248939 0 0.0016828 0.249073 0 0.00146646 0.249198 0 0.00126562 0.249314 0 0.00108026 0.249421 0 0.000910378 0.249518 0 0.000755968 0.249607 0 0.000617017 0.249686 0 0.00049351 0.249756 0 0.00038543 0.249817 0 0.000292757 0.249868 0 0.000215469 0.249911 0 0.000153541 0.249944 0 0.000106946 0.249968 0 7.56514e-05 0.249984 0 5.96262e-05 0.24999 0 5.88343e-05 0.249987 0 7.32376e-05 0.249975 0 6.57536e-05 0.249978 0 5.86891e-05 0.24998 0 5.20437e-05 0.249983 0 4.58167e-05 0.249985 0 4.00074e-05 0.249987 0 3.46151e-05 0.249989 0 2.96389e-05 0.249991 0 2.50781e-05 0.249992 0 2.09315e-05 0.249994 0 1.71982e-05 0.249995 0 1.38771e-05 0.249996 0 1.09671e-05 0.249997 0 8.46683e-06 0.249998 0 6.37509e-06 0.249999 0 4.69051e-06 0.25 0 3.41166e-06 0.25 0 2.53708e-06 0.25 0 2.0652e-06 0.25 0 1.99444e-06 0.25 0 2.32312e-06 0.25 0 0.184063 -1.07849e-11 0 0.183853 0.00395701 0 0.183406 0.00808295 0 0.18272 0.0123782 0 0.181795 0.016843 0 0.18063 0.0214776 0 0.179224 0.0262825 0 0.177576 0.0312577 0 0.175685 0.0364035 0 0.173551 0.0417201 0 0.171173 0.0472076 0 0.16855 0.0528662 0 0.165682 0.0586959 0 0.162568 0.0646968 0 0.159207 0.070869 0 0.1556 0.0772124 0 0.151745 0.0837271 0 0.147643 0.0904129 0 0.143293 0.0972699 0 0.138694 0.104298 0 0.133846 0.111497 0 0.127961 0.119331 0 0.122165 0.126935 0 0.116459 0.134309 0 0.110844 0.141451 0 0.10532 0.148361 0 0.0998894 0.155036 0 0.0945512 0.161476 0 0.0893066 0.16768 0 0.0841563 0.173647 0 0.0791009 0.179376 0 0.0741409 0.184865 0 0.0692771 0.190115 0 0.0645099 0.195123 0 0.0598399 0.19989 0 0.0552678 0.204415 0 0.050794 0.208697 0 0.046419 0.212734 0 0.0421434 0.216528 0 0.0379676 0.220076 0 0.0338921 0.223378 0 0.0311044 0.225805 0 0.0284423 0.22811 0 0.0259062 0.230295 0 0.0234962 0.232358 0 0.0212127 0.2343 0 0.019056 0.236119 0 0.0170263 0.237817 0 0.0151237 0.239392 0 0.0133486 0.240845 0 0.0117011 0.242175 0 0.0101813 0.243383 0 0.00878942 0.244468 0 0.00752547 0.24543 0 0.00638956 0.246269 0 0.00538177 0.246985 0 0.00450213 0.247578 0 0.00375065 0.248049 0 0.00312733 0.248396 0 0.00263213 0.24862 0 0.00226502 0.248722 0 0.00203134 0.248858 0 0.00181067 0.248987 0 0.00160304 0.249108 0 0.00140843 0.249221 0 0.00122685 0.249327 0 0.0010583 0.249424 0 0.000902778 0.249514 0 0.000760278 0.249596 0 0.000630791 0.249671 0 0.000514309 0.249737 0 0.00041082 0.249796 0 0.000320308 0.249847 0 0.000242758 0.249891 0 0.000178151 0.249926 0 0.000126466 0.249954 0 8.76799e-05 0.249975 0 6.17673e-05 0.249987 0 4.8701e-05 0.249992 0 4.84512e-05 0.249989 0 6.09863e-05 0.249979 0 5.47418e-05 0.249981 0 4.88477e-05 0.249984 0 4.33036e-05 0.249986 0 3.81089e-05 0.249987 0 3.32632e-05 0.249989 0 2.87658e-05 0.249991 0 2.4616e-05 0.249992 0 2.08131e-05 0.249994 0 1.73563e-05 0.249995 0 1.42447e-05 0.249996 0 1.14774e-05 0.249997 0 9.05354e-06 0.249998 0 6.97202e-06 0.249999 0 5.23179e-06 0.249999 0 3.83174e-06 0.25 0 2.77068e-06 0.25 0 2.04739e-06 0.25 0 1.6606e-06 0.25 0 1.60899e-06 0.25 0 1.89116e-06 0.25 0 0.181908 -1.51818e-11 0 0.181619 0.00420896 0 0.181084 0.00858187 0 0.180304 0.013119 0 0.179277 0.0178208 0 0.178003 0.0226873 0 0.17648 0.0277188 0 0.174708 0.0329155 0 0.172686 0.0382775 0 0.170413 0.0438051 0 0.167888 0.0494984 0 0.165112 0.0553573 0 0.162083 0.061382 0 0.1588 0.0675725 0 0.155264 0.0739289 0 0.151473 0.080451 0 0.147428 0.0871388 0 0.143127 0.0939923 0 0.138571 0.101011 0 0.133759 0.108196 0 0.128691 0.115545 0 0.122724 0.123442 0 0.116863 0.131095 0 0.11111 0.138502 0 0.105464 0.145663 0 0.0999263 0.152575 0 0.094498 0.159239 0 0.0891796 0.165652 0 0.0839718 0.171813 0 0.0788751 0.177723 0 0.0738904 0.183379 0 0.0690181 0.18878 0 0.064259 0.193927 0 0.0596136 0.198818 0 0.0550824 0.203452 0 0.0506661 0.207828 0 0.0463651 0.211946 0 0.0421801 0.215805 0 0.0381114 0.219404 0 0.0341597 0.222743 0 0.0303252 0.225821 0 0.0277639 0.228066 0 0.0253211 0.230198 0 0.0229972 0.232216 0 0.0207924 0.23412 0 0.018707 0.235909 0 0.0167412 0.237584 0 0.0148953 0.239145 0 0.0131694 0.24059 0 0.0115638 0.241921 0 0.0100785 0.243136 0 0.00871375 0.244236 0 0.00746963 0.245221 0 0.00634622 0.24609 0 0.00534361 0.246844 0 0.00446184 0.247482 0 0.00370095 0.248005 0 0.00306093 0.248412 0 0.00254178 0.248704 0 0.00214346 0.248881 0 0.00186593 0.248942 0 0.00167291 0.249055 0 0.00149066 0.249162 0 0.0013192 0.249262 0 0.00115852 0.249356 0 0.00100863 0.249444 0 0.000869528 0.249525 0 0.000741207 0.249599 0 0.000623664 0.249667 0 0.000516895 0.249729 0 0.00042089 0.249784 0 0.00033564 0.249833 0 0.000261134 0.249875 0 0.000197357 0.249911 0 0.000144295 0.24994 0 0.00010193 0.249963 0 7.0243e-05 0.24998 0 4.92139e-05 0.24999 0 3.88199e-05 0.249994 0 3.90367e-05 0.249992 0 4.98384e-05 0.249983 0 4.47222e-05 0.249985 0 3.98936e-05 0.249987 0 3.53521e-05 0.249988 0 3.10972e-05 0.24999 0 2.71287e-05 0.249991 0 2.34459e-05 0.249993 0 2.00483e-05 0.249994 0 1.69353e-05 0.249995 0 1.41062e-05 0.249996 0 1.15604e-05 0.249997 0 9.29716e-06 0.249998 0 7.31566e-06 0.249998 0 5.61508e-06 0.249999 0 4.19457e-06 0.249999 0 3.0532e-06 0.25 0 2.19004e-06 0.25 0 1.60408e-06 0.25 0 1.29428e-06 0.25 0 1.25957e-06 0.25 0 1.49883e-06 0.25 0 0.179702 -1.91984e-11 0 0.179332 0.00447743 0 0.17871 0.00911224 0 0.177836 0.0139047 0 0.176708 0.018855 0 0.175326 0.0239634 0 0.17369 0.02923 0 0.171797 0.034655 0 0.169648 0.0402385 0 0.167241 0.0459806 0 0.164577 0.0518814 0 0.161654 0.0579409 0 0.158471 0.0641592 0 0.155028 0.0705362 0 0.151325 0.0770718 0 0.147361 0.0837661 0 0.143136 0.090619 0 0.138649 0.0976302 0 0.1339 0.1048 0 0.128888 0.112127 0 0.123614 0.119613 0 0.117586 0.127551 0 0.111679 0.135232 0 0.105896 0.142653 0 0.100235 0.149814 0 0.0946988 0.156714 0 0.0892872 0.16335 0 0.0840012 0.169723 0 0.0788414 0.17583 0 0.0738086 0.181672 0 0.0689033 0.187247 0 0.0641263 0.192554 0 0.0594781 0.197591 0 0.0549594 0.20236 0 0.0505707 0.206857 0 0.0463127 0.211084 0 0.0421857 0.215038 0 0.0381905 0.21872 0 0.0343274 0.222128 0 0.0305969 0.225262 0 0.0269995 0.228122 0 0.0246538 0.230194 0 0.0224197 0.232158 0 0.0202975 0.234017 0 0.0182874 0.235768 0 0.0163896 0.237412 0 0.0146044 0.238949 0 0.012932 0.240379 0 0.0113725 0.241701 0 0.00992607 0.242915 0 0.00859289 0.244022 0 0.00737307 0.24502 0 0.0062667 0.245911 0 0.00527386 0.246693 0 0.00439463 0.247367 0 0.00362903 0.247933 0 0.00297709 0.248391 0 0.00243881 0.24874 0 0.00201418 0.248982 0 0.00170315 0.249115 0 0.00150568 0.249141 0 0.0013494 0.249233 0 0.00120186 0.24932 0 0.00106308 0.249402 0 0.000933059 0.249478 0 0.000811793 0.249549 0 0.000699283 0.249615 0 0.000595528 0.249676 0 0.000500524 0.249731 0 0.000414267 0.249781 0 0.00033675 0.249826 0 0.000267964 0.249866 0 0.000207901 0.2499 0 0.000156549 0.249929 0 0.000113897 0.249953 0 7.99301e-05 0.249971 0 5.46333e-05 0.249985 0 3.79901e-05 0.249993 0 2.99822e-05 0.249996 0 3.05901e-05 0.249994 0 3.9793e-05 0.249986 0 3.56943e-05 0.249988 0 3.18263e-05 0.249989 0 2.81887e-05 0.249991 0 2.47812e-05 0.249992 0 2.16034e-05 0.249993 0 1.8655e-05 0.249994 0 1.59355e-05 0.249995 0 1.34444e-05 0.249996 0 1.11812e-05 0.249997 0 9.14533e-06 0.249998 0 7.33627e-06 0.249998 0 5.75337e-06 0.249999 0 4.39598e-06 0.249999 0 3.26339e-06 0.25 0 2.3549e-06 0.25 0 1.66974e-06 0.25 0 1.20712e-06 0.25 0 9.66219e-07 0.25 0 9.46181e-07 0.25 0 1.14612e-06 0.25 0 0.177444 -2.28347e-11 0 0.176992 0.00476243 0 0.176282 0.00967406 0 0.175314 0.0147351 0 0.174088 0.0199457 0 0.172601 0.025306 0 0.170853 0.0308162 0 0.168844 0.0364763 0 0.166572 0.0422863 0 0.164037 0.0482465 0 0.161238 0.0543567 0 0.158175 0.060617 0 0.154847 0.0670273 0 0.151253 0.0735876 0 0.147392 0.0802978 0 0.143265 0.0871578 0 0.138871 0.0941675 0 0.134209 0.101327 0 0.12928 0.108635 0 0.124082 0.116093 0 0.118615 0.1237 0 0.112546 0.131657 0 0.106613 0.139345 0 0.100817 0.146762 0 0.095158 0.153906 0 0.0896378 0.160776 0 0.0842568 0.167371 0 0.0790158 0.17369 0 0.0739154 0.179732 0 0.0689564 0.185496 0 0.0641394 0.19098 0 0.0594652 0.196185 0 0.0549342 0.201108 0 0.0505472 0.205749 0 0.0463047 0.210108 0 0.0422073 0.214183 0 0.0382555 0.217974 0 0.0344499 0.22148 0 0.0307909 0.2247 0 0.027279 0.227635 0 0.0239146 0.230283 0 0.021774 0.232187 0 0.019738 0.233992 0 0.017807 0.235698 0 0.015981 0.237303 0 0.0142605 0.238809 0 0.0126455 0.240215 0 0.0111362 0.24152 0 0.00973275 0.242725 0 0.00843536 0.243829 0 0.00724412 0.244833 0 0.00615913 0.245735 0 0.00518049 0.246537 0 0.00430826 0.247238 0 0.00354249 0.247838 0 0.00288322 0.248337 0 0.00233047 0.248735 0 0.00188422 0.249033 0 0.00154446 0.249229 0 0.00131115 0.249324 0 0.00118423 0.249318 0 0.00106077 0.249392 0 0.00094424 0.249461 0 0.000834653 0.249526 0 0.000732007 0.249587 0 0.000636305 0.249643 0 0.000547545 0.249696 0 0.000465725 0.249744 0 0.000390844 0.249788 0 0.000322897 0.249828 0 0.000261879 0.249863 0 0.000207784 0.249895 0 0.000160604 0.249922 0 0.000120331 0.249945 0 8.69549e-05 0.249964 0 6.0465e-05 0.249978 0 4.08493e-05 0.249989 0 2.80947e-05 0.249995 0 2.21869e-05 0.249997 0 2.31106e-05 0.249995 0 3.08494e-05 0.249989 0 2.76572e-05 0.249991 0 2.46451e-05 0.249992 0 2.18129e-05 0.249993 0 1.91603e-05 0.249994 0 1.66871e-05 0.249995 0 1.43929e-05 0.249996 0 1.22774e-05 0.249996 0 1.03402e-05 0.249997 0 8.58101e-06 0.249998 0 6.99931e-06 0.249998 0 5.59468e-06 0.249999 0 4.36663e-06 0.249999 0 3.31466e-06 0.25 0 2.43823e-06 0.25 0 1.7368e-06 0.25 0 1.20976e-06 0.25 0 8.56517e-07 0.25 0 6.76425e-07 0.25 0 6.68824e-07 0.25 0 8.33026e-07 0.25 0 0.175135 -2.60908e-11 0 0.174599 0.00506395 0 0.173802 0.0102673 0 0.172741 0.0156102 0 0.171416 0.0210928 0 0.169826 0.0267151 0 0.16797 0.0324773 0 0.165848 0.0383792 0 0.163458 0.044421 0 0.1608 0.0506027 0 0.157873 0.0569242 0 0.154677 0.0633854 0 0.15121 0.0699863 0 0.147473 0.0767268 0 0.143465 0.0836067 0 0.139185 0.090626 0 0.134633 0.0977844 0 0.129808 0.105082 0 0.12471 0.112518 0 0.11934 0.120092 0 0.113695 0.127805 0 0.107605 0.13576 0 0.101664 0.143435 0 0.0958726 0.150828 0 0.0902322 0.157937 0 0.0847432 0.164762 0 0.0794067 0.171301 0 0.0742232 0.177554 0 0.0691935 0.183518 0 0.0643184 0.189194 0 0.0595985 0.194579 0 0.0550345 0.199674 0 0.0506271 0.204477 0 0.0463767 0.208987 0 0.0422841 0.213203 0 0.0383498 0.217126 0 0.0345743 0.220753 0 0.0309581 0.224085 0 0.0275017 0.227121 0 0.0242056 0.22986 0 0.0210702 0.232302 0 0.019124 0.234047 0 0.0172756 0.235699 0 0.0155252 0.237259 0 0.0138731 0.238726 0 0.0123193 0.2401 0 0.0108641 0.241381 0 0.00950761 0.242568 0 0.00825004 0.243662 0 0.00709148 0.244662 0 0.00603203 0.245569 0 0.00507181 0.246382 0 0.00421087 0.247101 0 0.00344929 0.247726 0 0.0027871 0.248258 0 0.00222433 0.248695 0 0.00176099 0.249039 0 0.00139707 0.249289 0 0.00113255 0.249445 0 0.000967396 0.249507 0 0.00090154 0.249475 0 0.000806981 0.249532 0 0.000717759 0.249585 0 0.000633879 0.249635 0 0.000555341 0.249682 0 0.000482146 0.249726 0 0.000414294 0.249767 0 0.000351782 0.249804 0 0.00029461 0.249838 0 0.000242774 0.249868 0 0.00019627 0.249896 0 0.000155093 0.24992 0 0.000119238 0.249941 0 8.86976e-05 0.249959 0 6.34652e-05 0.249973 0 4.35322e-05 0.249984 0 2.88893e-05 0.249992 0 1.95267e-05 0.249997 0 1.54333e-05 0.249999 0 1.65975e-05 0.249997 0 2.30068e-05 0.249992 0 2.06103e-05 0.249993 0 1.83495e-05 0.249994 0 1.62242e-05 0.249995 0 1.42342e-05 0.249995 0 1.23792e-05 0.249996 0 1.06592e-05 0.249997 0 9.07376e-06 0.249997 0 7.62265e-06 0.249998 0 6.30558e-06 0.249998 0 5.12224e-06 0.249999 0 4.07229e-06 0.249999 0 3.15536e-06 0.25 0 2.37109e-06 0.25 0 1.71907e-06 0.25 0 1.19888e-06 0.25 0 8.10102e-07 0.25 0 5.52262e-07 0.25 0 4.24891e-07 0.25 0 4.27495e-07 0.25 0 5.59559e-07 0.25 0 0.172774 -2.89666e-11 0 0.172154 0.00538199 0 0.171268 0.010892 0 0.170114 0.0165301 0 0.168693 0.0222964 0 0.167001 0.0281907 0 0.16504 0.0342132 0 0.162809 0.0403638 0 0.160305 0.0466425 0 0.157529 0.0530492 0 0.154481 0.0595838 0 0.151158 0.0662461 0 0.147561 0.0730362 0 0.14369 0.0799537 0 0.139543 0.0869986 0 0.13512 0.0941706 0 0.130421 0.10147 0 0.125445 0.108895 0 0.120192 0.116447 0 0.114662 0.124125 0 0.108854 0.131929 0 0.102763 0.139861 0 0.0968321 0.147502 0 0.0910635 0.154852 0 0.0854575 0.161909 0 0.0800149 0.168672 0 0.0747365 0.175141 0 0.0696232 0.181313 0 0.0646755 0.187189 0 0.0598944 0.192766 0 0.0552803 0.198043 0 0.0508341 0.203021 0 0.0465564 0.207698 0 0.0424476 0.212072 0 0.0385086 0.216144 0 0.0347397 0.219913 0 0.0311416 0.223377 0 0.0277147 0.226537 0 0.0244596 0.229391 0 0.0213766 0.231939 0 0.0184662 0.23418 0 0.0167038 0.235773 0 0.0150324 0.23728 0 0.0134521 0.238701 0 0.0119632 0.240036 0 0.0105658 0.241284 0 0.00926007 0.242447 0 0.00804614 0.243523 0 0.00692417 0.244512 0 0.00589424 0.245415 0 0.00495647 0.246231 0 0.00411094 0.24696 0 0.0033577 0.247602 0 0.00269682 0.248158 0 0.00212832 0.248626 0 0.00165223 0.249007 0 0.00126856 0.249302 0 0.000977289 0.249509 0 0.000778395 0.249629 0 0.000671837 0.249663 0 0.000657559 0.24961 0 0.000587995 0.249652 0 0.000522386 0.249692 0 0.000460732 0.24973 0 0.000403035 0.249765 0 0.000349294 0.249797 0 0.00029951 0.249828 0 0.000253682 0.249855 0 0.000211808 0.249881 0 0.000173885 0.249903 0 0.000139911 0.249924 0 0.000109883 0.249942 0 8.3796e-05 0.249957 0 6.1645e-05 0.24997 0 4.34249e-05 0.249981 0 2.91294e-05 0.249989 0 1.87519e-05 0.249995 0 1.22849e-05 0.249999 0 9.72046e-06 0.25 0 1.105e-05 0.249998 0 1.62642e-05 0.249994 0 1.45528e-05 0.249995 0 1.29388e-05 0.249996 0 1.1422e-05 0.249996 0 1.00023e-05 0.249997 0 8.67962e-06 0.249997 0 7.45368e-06 0.249998 0 6.32436e-06 0.249998 0 5.29145e-06 0.249999 0 4.35474e-06 0.249999 0 3.51401e-06 0.249999 0 2.76902e-06 0.25 0 2.11951e-06 0.25 0 1.56522e-06 0.25 0 1.10587e-06 0.25 0 7.41143e-07 0.25 0 4.70746e-07 0.25 0 2.9435e-07 0.25 0 2.11615e-07 0.25 0 2.22192e-07 0.25 0 3.25715e-07 0.25 0 0.170362 -3.14621e-11 0 0.169657 0.00571655 0 0.168682 0.0115481 0 0.167436 0.0174947 0 0.165918 0.0235563 0 0.164128 0.0297328 0 0.162065 0.0360241 0 0.159727 0.0424301 0 0.157114 0.0489508 0 0.154226 0.055586 0 0.151061 0.0623355 0 0.147619 0.0691992 0 0.1439 0.0761769 0 0.139902 0.0832683 0 0.135626 0.0904733 0 0.13107 0.0977916 0 0.126235 0.105223 0 0.12112 0.112767 0 0.115724 0.120424 0 0.110048 0.128192 0 0.104091 0.136073 0 0.0980186 0.143958 0 0.0921177 0.151545 0 0.0863892 0.158833 0 0.0808339 0.165821 0 0.0754527 0.172507 0 0.0702463 0.17889 0 0.0652156 0.184969 0 0.0603613 0.190744 0 0.0556841 0.196212 0 0.0511847 0.201373 0 0.0468637 0.206227 0 0.0427219 0.210771 0 0.0387598 0.215006 0 0.0349779 0.21893 0 0.031377 0.222543 0 0.0279573 0.225845 0 0.0247196 0.228833 0 0.0216642 0.231509 0 0.0187916 0.233871 0 0.0161022 0.235918 0 0.014513 0.237366 0 0.013008 0.238734 0 0.0115874 0.240023 0 0.0102513 0.241233 0 0.00899985 0.242363 0 0.00783323 0.243414 0 0.00675156 0.244385 0 0.00575494 0.245276 0 0.00484349 0.246087 0 0.00401727 0.246818 0 0.00327637 0.247469 0 0.00262084 0.248041 0 0.00205073 0.248531 0 0.00156606 0.248942 0 0.00116685 0.249273 0 0.000853098 0.249523 0 0.000624798 0.249693 0 0.000481918 0.249784 0 0.000424418 0.249794 0 0.000452244 0.249724 0 0.000403773 0.249754 0 0.000358085 0.249782 0 0.000315181 0.249809 0 0.000275061 0.249834 0 0.000237726 0.249857 0 0.000203175 0.249879 0 0.000171408 0.249898 0 0.000142424 0.249916 0 0.00011622 0.249933 0 9.27959e-05 0.249947 0 7.2148e-05 0.24996 0 5.42735e-05 0.249971 0 3.9169e-05 0.24998 0 2.68308e-05 0.249987 0 1.72545e-05 0.249993 0 1.04354e-05 0.249997 0 6.36828e-06 0.25 0 5.04759e-06 0.25 0 6.46729e-06 0.249999 0 1.06209e-05 0.2