<?xml version="1.0"?> 
<VTKFile type="StructuredGrid" version="0.1"> 
<StructuredGrid WholeExtent="0 100 0 100 0 0"> 
<Piece Extent="0 100 0 100 0 0"> 
<PointData Vectors="Mechanisum">
<DataArray type="Float32" Name="Mechanisum" format="ascii" NumberOfComponents="3"> 
-6.83199e-06 0.249998 0 -6.15437e-06 0.249999 0 -6.39257e-06 0.249999 0 -7.55065e-06 0.249998 0 -9.63252e-06 0.249998 0 -1.26419e-05 0.249997 0 -1.65825e-05 0.249995 0 -2.14577e-05 0.249994 0 -2.72708e-05 0.249992 0 -3.4025e-05 0.249989 0 -4.17233e-05 0.249987 0 -5.03684e-05 0.249984 0 -5.99631e-05 0.24998 0 -7.05099e-05 0.249976 0 -8.20111e-05 0.249972 0 -9.44689e-05 0.249968 0 -0.000107885 0.249963 0 -0.000122262 0.249958 0 -0.000137601 0.249952 0 -0.000153903 0.249946 0 -0.000171171 0.24994 0 -0.000142732 0.249964 0 -0.000148377 0.249969 0 -0.000188196 0.249953 0 -0.000262273 0.249917 0 -0.000370688 0.249861 0 -0.000513512 0.249785 0 -0.000690811 0.249688 0 -0.000902645 0.249571 0 -0.00114907 0.249434 0 -0.00143012 0.249277 0 -0.00174586 0.249099 0 -0.0020963 0.248901 0 -0.00248148 0.248682 0 -0.00290142 0.248443 0 -0.00335613 0.248183 0 -0.00384562 0.247903 0 -0.00436989 0.247603 0 -0.00492894 0.247282 0 -0.00552276 0.246941 0 -0.00615132 0.246579 0 -0.00741295 0.246061 0 -0.00885568 0.245365 0 -0.0104795 0.244489 0 -0.0122844 0.243434 0 -0.0142703 0.2422 0 -0.0164372 0.240788 0 -0.0187848 0.239196 0 -0.0213131 0.237426 0 -0.0240218 0.235476 0 -0.0269107 0.233349 0 -0.0299796 0.231043 0 -0.0332281 0.228558 0 -0.0366558 0.225896 0 -0.0402626 0.223057 0 -0.0440478 0.22004 0 -0.0480112 0.216846 0 -0.0521522 0.213476 0 -0.0564703 0.20993 0 -0.060965 0.206208 0 -0.0656357 0.202311 0 -0.0715114 0.197267 0 -0.0773318 0.192126 0 -0.0830965 0.186888 0 -0.0888049 0.181554 0 -0.0944566 0.176125 0 -0.100051 0.1706 0 -0.105588 0.164981 0 -0.111067 0.159269 0 -0.116488 0.153463 0 -0.121849 0.147566 0 -0.127151 0.141576 0 -0.132394 0.135497 0 -0.137577 0.129327 0 -0.142699 0.123068 0 -0.147761 0.11672 0 -0.152761 0.110285 0 -0.1577 0.103764 0 -0.162578 0.0971558 0 -0.167393 0.0904629 0 -0.172146 0.0836857 0 -0.175048 0.0779613 0 -0.177777 0.0723995 0 -0.180332 0.0670003 0 -0.182715 0.0617639 0 -0.184926 0.0566902 0 -0.186964 0.051779 0 -0.188831 0.0470304 0 -0.190527 0.0424443 0 -0.192052 0.0380204 0 -0.193406 0.0337586 0 -0.194591 0.0296588 0 -0.195606 0.0257207 0 -0.196452 0.021944 0 -0.19713 0.0183284 0 -0.197641 0.0148737 0 -0.197985 0.0115795 0 -0.198162 0.00844546 0 -0.198174 0.00547114 0 -0.198021 0.00265614 0 -0.197703 -3.70035e-11 0 -6.15012e-06 0.249998 0 -5.54069e-06 0.249999 0 -5.74645e-06 0.249999 0 -6.77099e-06 0.249998 0 -8.61774e-06 0.249998 0 -1.129e-05 0.249997 0 -1.4791e-05 0.249996 0 -1.91238e-05 0.249994 0 -2.42912e-05 0.249993 0 -3.02961e-05 0.249991 0 -3.71411e-05 0.249988 0 -4.48286e-05 0.249985 0 -5.33611e-05 0.249982 0 -6.27408e-05 0.249979 0 -7.29696e-05 0.249975 0 -8.40495e-05 0.249971 0 -9.59823e-05 0.249967 0 -0.00010877 0.249962 0 -0.000122413 0.249957 0 -0.000136914 0.249952 0 -0.000152273 0.249947 0 -0.000126512 0.249968 0 -0.000131159 0.249973 0 -0.000166295 0.249959 0 -0.000231992 0.249927 0 -0.000328322 0.249877 0 -0.000455347 0.249809 0 -0.000613125 0.249723 0 -0.000801711 0.249619 0 -0.00102115 0.249497 0 -0.00127148 0.249357 0 -0.00155275 0.249198 0 -0.00186497 0.249021 0 -0.00220818 0.248826 0 -0.0025824 0.248613 0 -0.00298763 0.248381 0 -0.00342389 0.248131 0 -0.00389117 0.247863 0 -0.00438947 0.247577 0 -0.00491878 0.247272 0 -0.00547909 0.24695 0 -0.0065842 0.246506 0 -0.00786262 0.245891 0 -0.00931437 0.245106 0 -0.0109394 0.24415 0 -0.0127378 0.243024 0 -0.0147093 0.241727 0 -0.0168539 0.24026 0 -0.0191714 0.238622 0 -0.0216617 0.236814 0 -0.0243245 0.234835 0 -0.0271596 0.232687 0 -0.0301668 0.230369 0 -0.0333456 0.227881 0 -0.0366959 0.225224 0 -0.0402171 0.222398 0 -0.043909 0.219404 0 -0.0477711 0.216241 0 -0.0518028 0.21291 0 -0.0560038 0.209412 0 -0.0603734 0.205747 0 -0.0659798 0.20097 0 -0.0715571 0.196071 0 -0.0771047 0.191048 0 -0.0826222 0.185904 0 -0.0881092 0.180639 0 -0.093565 0.175253 0 -0.0989894 0.169747 0 -0.104382 0.164122 0 -0.109742 0.158378 0 -0.115069 0.152517 0 -0.120362 0.146538 0 -0.125622 0.140443 0 -0.130848 0.134233 0 -0.136039 0.127908 0 -0.141195 0.12147 0 -0.146316 0.114919 0 -0.151401 0.108255 0 -0.15645 0.101481 0 -0.161462 0.0945957 0 -0.166438 0.0876016 0 -0.169661 0.0816217 0 -0.172697 0.0758106 0 -0.175547 0.0701686 0 -0.178211 0.0646955 0 -0.18069 0.0593914 0 -0.182983 0.0542562 0 -0.185091 0.0492898 0 -0.187015 0.0444922 0 -0.188755 0.0398631 0 -0.190311 0.0354025 0 -0.191685 0.03111 0 -0.192875 0.0269856 0 -0.193884 0.0230288 0 -0.194712 0.0192395 0 -0.195359 0.0156173 0 -0.195826 0.0121619 0 -0.196114 0.0088729 0 -0.196223 0.00574986 0 -0.196155 0.00279238 0 -0.19591 -3.33494e-11 0 -5.50779e-06 0.249998 0 -4.96295e-06 0.249999 0 -5.13852e-06 0.249999 0 -6.03763e-06 0.249999 0 -7.66327e-06 0.249998 0 -1.00184e-05 0.249997 0 -1.31057e-05 0.249996 0 -1.69279e-05 0.249995 0 -2.14876e-05 0.249993 0 -2.67871e-05 0.249992 0 -3.28288e-05 0.249989 0 -3.96148e-05 0.249987 0 -4.71473e-05 0.249984 0 -5.54281e-05 0.249981 0 -6.44591e-05 0.249978 0 -7.42418e-05 0.249975 0 -8.4778e-05 0.249971 0 -9.60689e-05 0.249967 0 -0.000108116 0.249962 0 -0.00012092 0.249958 0 -0.000134482 0.249953 0 -0.000111265 0.249972 0 -0.000114991 0.249976 0 -0.000145731 0.249964 0 -0.000203549 0.249936 0 -0.000288508 0.249892 0 -0.000400662 0.249832 0 -0.000540064 0.249756 0 -0.000706758 0.249664 0 -0.000900787 0.249556 0 -0.00112219 0.249432 0 -0.00137099 0.249291 0 -0.00164722 0.249134 0 -0.0019509 0.248962 0 -0.00228205 0.248773 0 -0.00264067 0.248567 0 -0.00302678 0.248346 0 -0.00344037 0.248108 0 -0.00388145 0.247855 0 -0.00435 0.247585 0 -0.004846 0.247298 0 -0.00580419 0.246923 0 -0.00692797 0.246386 0 -0.00821738 0.245687 0 -0.0096724 0.244825 0 -0.011293 0.243801 0 -0.0130791 0.242614 0 -0.0150307 0.241265 0 -0.0171475 0.239754 0 -0.0194295 0.238081 0 -0.0218764 0.236246 0 -0.024488 0.23425 0 -0.0272642 0.232091 0 -0.0302045 0.229772 0 -0.0333087 0.227291 0 -0.0365764 0.224649 0 -0.0400073 0.221847 0 -0.043601 0.218885 0 -0.047357 0.215762 0 -0.0512748 0.212481 0 -0.0553541 0.20904 0 -0.0606953 0.204525 0 -0.0660321 0.199862 0 -0.0713642 0.195052 0 -0.0766909 0.190096 0 -0.0820119 0.184995 0 -0.0873266 0.179749 0 -0.0926346 0.174359 0 -0.0979353 0.168826 0 -0.103228 0.16315 0 -0.108513 0.157332 0 -0.113789 0.151373 0 -0.119056 0.145273 0 -0.124314 0.139035 0 -0.129561 0.132658 0 -0.134798 0.126143 0 -0.140024 0.119491 0 -0.145238 0.112704 0 -0.150441 0.105782 0 -0.155631 0.0987255 0 -0.160809 0.0915365 0 -0.164338 0.0853161 0 -0.167669 0.0792691 0 -0.170801 0.0733957 0 -0.173734 0.0676958 0 -0.17647 0.0621695 0 -0.179007 0.0568167 0 -0.181348 0.0516374 0 -0.183491 0.0466314 0 -0.185438 0.0417986 0 -0.187189 0.0371388 0 -0.188745 0.0326519 0 -0.190107 0.0283376 0 -0.191274 0.0241956 0 -0.192247 0.0202257 0 -0.193028 0.0164276 0 -0.193616 0.0128008 0 -0.194013 0.00934514 0 -0.19422 0.00606005 0 -0.194236 0.00294516 0 -0.194064 -3.08119e-11 0 -4.90497e-06 0.249998 0 -4.42116e-06 0.249999 0 -4.56878e-06 0.249999 0 -5.35056e-06 0.249999 0 -6.7691e-06 0.249998 0 -8.82692e-06 0.249998 0 -1.15264e-05 0.249997 0 -1.487e-05 0.249996 0 -1.88597e-05 0.249994 0 -2.34978e-05 0.249993 0 -2.87862e-05 0.249991 0 -3.47268e-05 0.249989 0 -4.13214e-05 0.249986 0 -4.85717e-05 0.249984 0 -5.64793e-05 0.249981 0 -6.50455e-05 0.249978 0 -7.42717e-05 0.249974 0 -8.41592e-05 0.249971 0 -9.47091e-05 0.249967 0 -0.000105922 0.249963 0 -0.0001178 0.249959 0 -9.69906e-05 0.249976 0 -9.98713e-05 0.24998 0 -0.000126503 0.249969 0 -0.000176943 0.249945 0 -0.000251244 0.249907 0 -0.000349455 0.249854 0 -0.000471621 0.249787 0 -0.000617781 0.249706 0 -0.000787971 0.249611 0 -0.000982224 0.249502 0 -0.00120057 0.249379 0 -0.00144302 0.249241 0 -0.00170961 0.249089 0 -0.00200034 0.248923 0 -0.00231523 0.248742 0 -0.00265427 0.248547 0 -0.00301748 0.248338 0 -0.00340485 0.248115 0 -0.00381637 0.247878 0 -0.00425203 0.247626 0 -0.00507288 0.247315 0 -0.00605168 0.24685 0 -0.00718847 0.246231 0 -0.00848325 0.245458 0 -0.00993599 0.24453 0 -0.0115466 0.243449 0 -0.0133151 0.242213 0 -0.0152413 0.240824 0 -0.0173251 0.23928 0 -0.0195663 0.237582 0 -0.0219647 0.235731 0 -0.0245201 0.233726 0 -0.0272322 0.231568 0 -0.0301007 0.229257 0 -0.0331254 0.226793 0 -0.0363058 0.224176 0 -0.0396417 0.221408 0 -0.0431325 0.218487 0 -0.046778 0.215415 0 -0.0505775 0.212192 0 -0.0556575 0.207931 0 -0.0607567 0.2035 0 -0.0658746 0.1989 0 -0.0710107 0.194131 0 -0.0761646 0.189194 0 -0.0813357 0.184089 0 -0.0865235 0.178818 0 -0.0917276 0.173381 0 -0.0969474 0.167778 0 -0.102182 0.162011 0 -0.107432 0.156081 0 -0.112696 0.149987 0 -0.117974 0.143732 0 -0.123265 0.137316 0 -0.128568 0.130739 0 -0.133884 0.124004 0 -0.139211 0.11711 0 -0.14455 0.110059 0 -0.149899 0.102852 0 -0.155259 0.0954905 0 -0.159081 0.0890444 0 -0.162692 0.0827748 0 -0.166093 0.0766815 0 -0.169284 0.0707648 0 -0.172265 0.0650245 0 -0.175037 0.0594606 0 -0.1776 0.0540731 0 -0.179954 0.0488618 0 -0.182101 0.0438268 0 -0.18404 0.0389677 0 -0.185773 0.0342844 0 -0.187299 0.0297767 0 -0.18862 0.0254443 0 -0.189736 0.021287 0 -0.190647 0.0173044 0 -0.191355 0.0134963 0 -0.19186 0.00986217 0 -0.192163 0.00640171 0 -0.192265 0.00311447 0 -0.192167 -2.93911e-11 0 -4.34168e-06 0.249999 0 -3.91531e-06 0.249999 0 -4.03723e-06 0.249999 0 -4.70978e-06 0.249999 0 -5.93522e-06 0.249998 0 -7.71569e-06 0.249998 0 -1.00533e-05 0.249997 0 -1.295e-05 0.249996 0 -1.64077e-05 0.249995 0 -2.04282e-05 0.249993 0 -2.50133e-05 0.249992 0 -3.01645e-05 0.24999 0 -3.58834e-05 0.249988 0 -4.21714e-05 0.249986 0 -4.90299e-05 0.249983 0 -5.64601e-05 0.249981 0 -6.44632e-05 0.249978 0 -7.30402e-05 0.249975 0 -8.21921e-05 0.249971 0 -9.19197e-05 0.249968 0 -0.000102224 0.249964 0 -8.36875e-05 0.24998 0 -8.57988e-05 0.249983 0 -0.000108611 0.249974 0 -0.000152172 0.249953 0 -0.000216529 0.24992 0 -0.000301723 0.249874 0 -0.000407793 0.249816 0 -0.000534773 0.249746 0 -0.000682696 0.249663 0 -0.000851587 0.249568 0 -0.00104147 0.24946 0 -0.00125237 0.24934 0 -0.00148429 0.249208 0 -0.00173726 0.249063 0 -0.00201127 0.248905 0 -0.00230634 0.248735 0 -0.00262246 0.248553 0 -0.00295964 0.248358 0 -0.00331786 0.248151 0 -0.00369712 0.247932 0 -0.0043902 0.24768 0 -0.00523367 0.247283 0 -0.00622755 0.246739 0 -0.00737186 0.24605 0 -0.00866659 0.245214 0 -0.0101117 0.244232 0 -0.0117071 0.243104 0 -0.0134527 0.241829 0 -0.0153484 0.240409 0 -0.017394 0.238843 0 -0.0195894 0.237131 0 -0.0219343 0.235274 0 -0.0244285 0.233271 0 -0.0270718 0.231123 0 -0.0298638 0.22883 0 -0.0328043 0.226392 0 -0.0358929 0.22381 0 -0.0391292 0.221084 0 -0.0425129 0.218214 0 -0.0460435 0.215201 0 -0.0508663 0.211189 0 -0.0557305 0.206985 0 -0.0606357 0.202592 0 -0.0655813 0.198008 0 -0.0705669 0.193235 0 -0.0755919 0.188273 0 -0.0806559 0.183123 0 -0.0857582 0.177787 0 -0.0908985 0.172264 0 -0.0960761 0.166555 0 -0.101291 0.160662 0 -0.106541 0.154584 0 -0.111828 0.148324 0 -0.11715 0.141882 0 -0.122506 0.135259 0 -0.127896 0.128456 0 -0.13332 0.121473 0 -0.138777 0.114313 0 -0.144266 0.106976 0 -0.149788 0.0994634 0 -0.153887 0.0928068 0 -0.157766 0.0863277 0 -0.161423 0.0800262 0 -0.164859 0.0739024 0 -0.168076 0.0679562 0 -0.171072 0.0621878 0 -0.173848 0.0565969 0 -0.176405 0.0511835 0 -0.178744 0.0459476 0 -0.180864 0.040889 0 -0.182767 0.0360074 0 -0.184454 0.0313028 0 -0.185923 0.0267749 0 -0.187178 0.0224233 0 -0.188217 0.0182478 0 -0.189042 0.0142482 0 -0.189654 0.010424 0 -0.190054 0.00677482 0 -0.190242 0.0033003 0 -0.190219 -2.9087e-11 0 -3.81792e-06 0.249999 0 -3.44539e-06 0.249999 0 -3.54385e-06 0.249999 0 -4.11529e-06 0.249999 0 -5.16161e-06 0.249999 0 -6.68466e-06 0.249998 0 -8.68619e-06 0.249997 0 -1.11679e-05 0.249997 0 -1.41314e-05 0.249996 0 -1.75782e-05 0.249994 0 -2.15098e-05 0.249993 0 -2.59276e-05 0.249991 0 -3.08329e-05 0.24999 0 -3.62268e-05 0.249988 0 -4.21106e-05 0.249986 0 -4.84853e-05 0.249983 0 -5.53519e-05 0.249981 0 -6.27113e-05 0.249978 0 -7.05642e-05 0.249975 0 -7.89114e-05 0.249972 0 -8.77536e-05 0.249969 0 -7.13552e-05 0.249983 0 -7.2773e-05 0.249986 0 -9.2052e-05 0.249979 0 -0.000129234 0.249961 0 -0.000184359 0.249932 0 -0.000257462 0.249893 0 -0.000348576 0.249843 0 -0.00045773 0.249782 0 -0.000584952 0.249711 0 -0.000730265 0.249629 0 -0.000893689 0.249536 0 -0.00107524 0.249432 0 -0.00127493 0.249318 0 -0.00149278 0.249193 0 -0.00172878 0.249057 0 -0.00198295 0.24891 0 -0.00225528 0.248753 0 -0.00254578 0.248585 0 -0.00285443 0.248406 0 -0.00318123 0.248216 0 -0.00375611 0.248019 0 -0.00447387 0.247684 0 -0.00533455 0.247211 0 -0.00633817 0.2466 0 -0.00748472 0.24585 0 -0.00877417 0.244962 0 -0.0102065 0.243936 0 -0.0117815 0.242772 0 -0.0134992 0.241469 0 -0.0153594 0.240028 0 -0.017362 0.23845 0 -0.0195067 0.236733 0 -0.0217934 0.234879 0 -0.0242218 0.232888 0 -0.0267916 0.230759 0 -0.0295026 0.228494 0 -0.0323545 0.226092 0 -0.0353468 0.223553 0 -0.0384793 0.220878 0 -0.0417516 0.218068 0 -0.0463213 0.214298 0 -0.0509533 0.210318 0 -0.0556472 0.206128 0 -0.0604025 0.201727 0 -0.0652186 0.197118 0 -0.0700951 0.192301 0 -0.0750315 0.187276 0 -0.0800271 0.182044 0 -0.0850815 0.176606 0 -0.0901942 0.170964 0 -0.0953645 0.165116 0 -0.100592 0.159066 0 -0.105876 0.152812 0 -0.111216 0.146358 0 -0.116611 0.139702 0 -0.122061 0.132848 0 -0.127565 0.125794 0 -0.133122 0.118544 0 -0.138733 0.111097 0 -0.144395 0.103455 0 -0.148759 0.096603 0 -0.152891 0.0899278 0 -0.156792 0.0834296 0 -0.160462 0.0771086 0 -0.163902 0.0709648 0 -0.167112 0.0649982 0 -0.170092 0.0592087 0 -0.172844 0.0535964 0 -0.175366 0.0481611 0 -0.177661 0.0429027 0 -0.179729 0.0378211 0 -0.181569 0.032916 0 -0.183184 0.0281872 0 -0.184573 0.0236346 0 -0.185738 0.0192578 0 -0.186678 0.0150566 0 -0.187396 0.0110306 0 -0.187891 0.00717939 0 -0.188165 0.00350267 0 -0.188219 -2.98996e-11 0 -3.33368e-06 0.249999 0 -3.01141e-06 0.249999 0 -3.08866e-06 0.249999 0 -3.56708e-06 0.249999 0 -4.44827e-06 0.249999 0 -5.73379e-06 0.249998 0 -7.42511e-06 0.249998 0 -9.52365e-06 0.249997 0 -1.20308e-05 0.249996 0 -1.49477e-05 0.249995 0 -1.82758e-05 0.249994 0 -2.20161e-05 0.249993 0 -2.61698e-05 0.249991 0 -3.07379e-05 0.249989 0 -3.57212e-05 0.249988 0 -4.11208e-05 0.249986 0 -4.69374e-05 0.249984 0 -5.31719e-05 0.249981 0 -5.98248e-05 0.249979 0 -6.68968e-05 0.249976 0 -7.43884e-05 0.249974 0 -5.9993e-05 0.249986 0 -6.07929e-05 0.249989 0 -7.68262e-05 0.249982 0 -0.000108128 0.249967 0 -0.000154733 0.249943 0 -0.000216669 0.24991 0 -0.000293965 0.249867 0 -0.000386646 0.249815 0 -0.000494735 0.249755 0 -0.00061825 0.249685 0 -0.00075721 0.249606 0 -0.000911629 0.249517 0 -0.00108152 0.24942 0 -0.00126689 0.249313 0 -0.00146774 0.249197 0 -0.00168408 0.249072 0 -0.00191591 0.248937 0 -0.00216323 0.248794 0 -0.00242604 0.248641 0 -0.00270431 0.248479 0 -0.00317055 0.248332 0 -0.00377222 0.248055 0 -0.00450939 0.247647 0 -0.00538206 0.247109 0 -0.00639026 0.246441 0 -0.00753394 0.245641 0 -0.00881307 0.244711 0 -0.0102276 0.243651 0 -0.0117774 0.24246 0 -0.0134623 0.241139 0 -0.0152822 0.239687 0 -0.017237 0.238106 0 -0.0193265 0.236394 0 -0.0215503 0.234553 0 -0.0239084 0.232582 0 -0.0264004 0.230482 0 -0.0290261 0.228253 0 -0.0317851 0.225895 0 -0.0346771 0.223408 0 -0.0377017 0.220793 0 -0.0420223 0.217261 0 -0.0464248 0.213499 0 -0.0509089 0.209508 0 -0.0554739 0.20529 0 -0.0601195 0.200845 0 -0.064845 0.196173 0 -0.06965 0.191276 0 -0.0745339 0.186153 0 -0.0794962 0.180807 0 -0.0845363 0.175237 0 -0.0896535 0.169444 0 -0.0948475 0.16343 0 -0.100117 0.157196 0 -0.105463 0.150742 0 -0.110883 0.144069 0 -0.116377 0.137179 0 -0.121945 0.130073 0 -0.127585 0.122751 0 -0.133298 0.115215 0 -0.139082 0.107466 0 -0.143695 0.100433 0 -0.148067 0.093575 0 -0.152199 0.0868917 0 -0.156091 0.0803834 0 -0.159744 0.07405 0 -0.163157 0.0678918 0 -0.166333 0.0619086 0 -0.169269 0.0561004 0 -0.171969 0.0504672 0 -0.174431 0.0450088 0 -0.176657 0.0397252 0 -0.178647 0.0346161 0 -0.180402 0.0296815 0 -0.181922 0.024921 0 -0.183209 0.0203344 0 -0.184263 0.0159215 0 -0.185085 0.0116819 0 -0.185676 0.00761541 0 -0.186036 0.00372156 0 -0.186167 -3.18289e-11 0 -2.88896e-06 0.249999 0 -2.61337e-06 0.249999 0 -2.67164e-06 0.249999 0 -3.06514e-06 0.249999 0 -3.79519e-06 0.249999 0 -4.86308e-06 0.249998 0 -6.27003e-06 0.249998 0 -8.01722e-06 0.249997 0 -1.01058e-05 0.249997 0 -1.25367e-05 0.249996 0 -1.53111e-05 0.249995 0 -1.84299e-05 0.249994 0 -2.1894e-05 0.249993 0 -2.57042e-05 0.249991 0 -2.98613e-05 0.24999 0 -3.43662e-05 0.249988 0 -3.92194e-05 0.249986 0 -4.44215e-05 0.249984 0 -4.99732e-05 0.249982 0 -5.5875e-05 0.24998 0 -6.21272e-05 0.249978 0 -4.96e-05 0.249988 0 -4.98578e-05 0.249991 0 -6.29322e-05 0.249986 0 -8.88529e-05 0.249973 0 -0.000127647 0.249953 0 -0.000179341 0.249925 0 -0.000243956 0.24989 0 -0.000321515 0.249846 0 -0.000412035 0.249795 0 -0.000515533 0.249736 0 -0.000632024 0.24967 0 -0.000761519 0.249595 0 -0.000904028 0.249513 0 -0.00105956 0.249423 0 -0.00122812 0.249326 0 -0.0014097 0.24922 0 -0.00160432 0.249107 0 -0.00181197 0.248986 0 -0.00203264 0.248857 0 -0.00226633 0.248721 0 -0.00263345 0.248619 0 -0.00312865 0.248395 0 -0.00375198 0.248047 0 -0.00450347 0.247577 0 -0.00538311 0.246984 0 -0.00639091 0.246268 0 -0.00752682 0.245429 0 -0.00879078 0.244467 0 -0.0101827 0.243382 0 -0.0117025 0.242174 0 -0.01335 0.240844 0 -0.0151251 0.239391 0 -0.0170276 0.237816 0 -0.0190574 0.236118 0 -0.0212141 0.234299 0 -0.0234976 0.232357 0 -0.0259075 0.230294 0 -0.0284437 0.228109 0 -0.0311058 0.225804 0 -0.0338935 0.223377 0 -0.037969 0.220075 0 -0.0421447 0.216527 0 -0.0464204 0.212733 0 -0.0507953 0.208696 0 -0.0552692 0.204414 0 -0.0598413 0.19989 0 -0.0645112 0.195123 0 -0.0692784 0.190114 0 -0.0741423 0.184864 0 -0.0791022 0.179375 0 -0.0841576 0.173646 0 -0.0893079 0.167679 0 -0.0945525 0.161475 0 -0.0998907 0.155035 0 -0.105322 0.14836 0 -0.110845 0.141451 0 -0.11646 0.134309 0 -0.122166 0.126935 0 -0.127962 0.11933 0 -0.133848 0.111496 0 -0.138695 0.104297 0 -0.143294 0.0972693 0 -0.147644 0.0904124 0 -0.151747 0.0837266 0 -0.155601 0.077212 0 -0.159208 0.0708686 0 -0.162569 0.0646964 0 -0.165683 0.0586955 0 -0.168551 0.0528658 0 -0.171174 0.0472073 0 -0.173552 0.0417198 0 -0.175686 0.0364033 0 -0.177577 0.0312575 0 -0.179225 0.0262823 0 -0.180631 0.0214775 0 -0.181796 0.0168428 0 -0.182721 0.0123781 0 -0.183407 0.00808289 0 -0.183854 0.00395698 0 -0.184064 -3.48749e-11 0 -2.48377e-06 0.249999 0 -2.25126e-06 0.249999 0 -2.29279e-06 0.249999 0 -2.60946e-06 0.249999 0 -3.20236e-06 0.249999 0 -4.07252e-06 0.249999 0 -5.22093e-06 0.249998 0 -6.64855e-06 0.249998 0 -8.3563e-06 0.249997 0 -1.0345e-05 0.249996 0 -1.26156e-05 0.249996 0 -1.51687e-05 0.249995 0 -1.80051e-05 0.249994 0 -2.11256e-05 0.249993 0 -2.45307e-05 0.249991 0 -2.82211e-05 0.24999 0 -3.21973e-05 0.249989 0 -3.64597e-05 0.249987 0 -4.1009e-05 0.249985 0 -4.58454e-05 0.249984 0 -5.09694e-05 0.249982 0 -4.01756e-05 0.249991 0 -3.99668e-05 0.249993 0 -5.03689e-05 0.249989 0 -7.14061e-05 0.249979 0 -0.000103101 0.249962 0 -0.000145474 0.249939 0 -0.000198545 0.24991 0 -0.00026233 0.249874 0 -0.000336845 0.249832 0 -0.000422104 0.249783 0 -0.000518118 0.249728 0 -0.000624896 0.249666 0 -0.000742447 0.249598 0 -0.000870778 0.249524 0 -0.00100989 0.249443 0 -0.00115979 0.249355 0 -0.00132048 0.249261 0 -0.00149195 0.249161 0 -0.0016742 0.249054 0 -0.00186723 0.248941 0 -0.00214478 0.24888 0 -0.0025431 0.248703 0 -0.00306226 0.248411 0 -0.00370228 0.248004 0 -0.00446318 0.247481 0 -0.00534496 0.246843 0 -0.00634758 0.246089 0 -0.00747099 0.24522 0 -0.00871511 0.244235 0 -0.0100799 0.243135 0 -0.0115651 0.24192 0 -0.0131708 0.240589 0 -0.0148967 0.239144 0 -0.0167426 0.237583 0 -0.0187084 0.235908 0 -0.0207938 0.234119 0 -0.0229986 0.232215 0 -0.0253225 0.230197 0 -0.0277653 0.228065 0 -0.0303266 0.22582 0 -0.034161 0.222742 0 -0.0381128 0.219403 0 -0.0421815 0.215804 0 -0.0463665 0.211945 0 -0.0506674 0.207827 0 -0.0550838 0.203451 0 -0.0596149 0.198817 0 -0.0642603 0.193926 0 -0.0690195 0.18878 0 -0.0738917 0.183378 0 -0.0788765 0.177722 0 -0.0839731 0.171812 0 -0.089181 0.165651 0 -0.0944993 0.159238 0 -0.0999276 0.152575 0 -0.105465 0.145662 0 -0.111111 0.138502 0 -0.116865 0.131095 0 -0.122725 0.123442 0 -0.128692 0.115545 0 -0.13376 0.108195 0 -0.138572 0.101011 0 -0.143128 0.0939918 0 -0.147429 0.0871383 0 -0.151474 0.0804505 0 -0.155265 0.0739285 0 -0.158801 0.0675722 0 -0.162084 0.0613817 0 -0.165113 0.055357 0 -0.167889 0.0494981 0 -0.170414 0.0438049 0 -0.172687 0.0382773 0 -0.174709 0.0329153 0 -0.176481 0.0277186 0 -0.178004 0.0226871 0 -0.179279 0.0178206 0 -0.180305 0.013119 0 -0.181085 0.00858181 0 -0.18162 0.00420893 0 -0.181909 -3.90375e-11 0 -2.1181e-06 0.249999 0 -1.92509e-06 0.249999 0 -1.95211e-06 0.249999 0 -2.20004e-06 0.249999 0 -2.66976e-06 0.249999 0 -3.36207e-06 0.249999 0 -4.27777e-06 0.249998 0 -5.41762e-06 0.249998 0 -6.78234e-06 0.249998 0 -8.37261e-06 0.249997 0 -1.01891e-05 0.249996 0 -1.22324e-05 0.249996 0 -1.45032e-05 0.249995 0 -1.70018e-05 0.249994 0 -1.9729e-05 0.249993 0 -2.26851e-05 0.249992 0 -2.58706e-05 0.249991 0 -2.92859e-05 0.249989 0 -3.29314e-05 0.249988 0 -3.68073e-05 0.249987 0 -4.0914e-05 0.249985 0 -3.1719e-05 0.249993 0 -3.1119e-05 0.249995 0 -3.9135e-05 0.249992 0 -5.57865e-05 0.249984 0 -8.10915e-05 0.24997 0 -0.000115067 0.249952 0 -0.000157728 0.249928 0 -0.000209088 0.249899 0 -0.00026916 0.249864 0 -0.000337954 0.249825 0 -0.00041548 0.24978 0 -0.000501747 0.24973 0 -0.00059676 0.249675 0 -0.000700524 0.249614 0 -0.000813043 0.249548 0 -0.000934319 0.249477 0 -0.00106435 0.249401 0 -0.00120314 0.249319 0 -0.00135068 0.249232 0 -0.00150698 0.24914 0 -0.00170446 0.249114 0 -0.00201549 0.248981 0 -0.00244013 0.248739 0 -0.00297842 0.24839 0 -0.00363036 0.247932 0 -0.00439597 0.247366 0 -0.00527521 0.246692 0 -0.00626805 0.245909 0 -0.00737443 0.245019 0 -0.00859425 0.244021 0 -0.00992744 0.242914 0 -0.0113739 0.2417 0 -0.0129334 0.240378 0 -0.0146058 0.238948 0 -0.016391 0.237411 0 -0.0182888 0.235767 0 -0.0202989 0.234016 0 -0.0224211 0.232158 0 -0.0246552 0.230193 0 -0.0270009 0.228121 0 -0.0305983 0.225261 0 -0.0343287 0.222127 0 -0.0381919 0.218719 0 -0.0421871 0.215037 0 -0.046314 0.211083 0 -0.0505721 0.206856 0 -0.0549608 0.202359 0 -0.0594795 0.197591 0 -0.0641277 0.192553 0 -0.0689047 0.187246 0 -0.0738099 0.181671 0 -0.0788428 0.17583 0 -0.0840026 0.169722 0 -0.0892886 0.163349 0 -0.0947001 0.156713 0 -0.100236 0.149814 0 -0.105897 0.142653 0 -0.111681 0.135231 0 -0.117587 0.127551 0 -0.123615 0.119612 0 -0.128889 0.112127 0 -0.133901 0.104799 0 -0.13865 0.0976297 0 -0.143137 0.0906185 0 -0.147363 0.0837657 0 -0.151327 0.0770714 0 -0.15503 0.0705358 0 -0.158472 0.0641588 0 -0.161655 0.0579406 0 -0.164578 0.0518811 0 -0.167243 0.0459804 0 -0.169649 0.0402383 0 -0.171798 0.0346548 0 -0.173691 0.0292298 0 -0.175328 0.0239632 0 -0.176709 0.0188549 0 -0.177837 0.0139046 0 -0.178711 0.00911218 0 -0.179333 0.0044774 0 -0.179703 -4.43169e-11 0 -1.79195e-06 0.249999 0 -1.63484e-06 0.249999 0 -1.64959e-06 0.249999 0 -1.83688e-06 0.249999 0 -2.19738e-06 0.249999 0 -2.73173e-06 0.249999 0 -3.44053e-06 0.249999 0 -4.32437e-06 0.249998 0 -5.38381e-06 0.249998 0 -6.61939e-06 0.249998 0 -8.0316e-06 0.249997 0 -9.62093e-06 0.249996 0 -1.13878e-05 0.249996 0 -1.33327e-05 0.249995 0 -1.5456e-05 0.249994 0 -1.7758e-05 0.249994 0 -2.02391e-05 0.249993 0 -2.28996e-05 0.249992 0 -2.57398e-05 0.249991 0 -2.876e-05 0.249989 0 -3.19603e-05 0.249988 0 -2.42294e-05 0.249994 0 -2.33137e-05 0.249996 0 -2.92296e-05 0.249994 0 -4.19925e-05 0.249988 0 -6.16166e-05 0.249977 0 -8.81149e-05 0.249963 0 -0.0001215 0.249944 0 -0.000161781 0.249921 0 -0.00020897 0.249894 0 -0.000263074 0.249862 0 -0.000324101 0.249827 0 -0.000392057 0.249787 0 -0.000466948 0.249743 0 -0.000548776 0.249695 0 -0.000637546 0.249642 0 -0.000733258 0.249586 0 -0.000835913 0.249525 0 -0.00094551 0.24946 0 -0.00106205 0.249391 0 -0.00118552 0.249317 0 -0.00131245 0.249323 0 -0.00154577 0.249228 0 -0.00188553 0.249031 0 -0.00233179 0.248734 0 -0.00288455 0.248336 0 -0.00354383 0.247837 0 -0.00430961 0.247237 0 -0.00518184 0.246536 0 -0.00616049 0.245734 0 -0.00724548 0.244832 0 -0.00843673 0.243828 0 -0.00973412 0.242724 0 -0.0111375 0.241519 0 -0.0126468 0.240214 0 -0.0142619 0.238808 0 -0.0159824 0.237303 0 -0.0178083 0.235697 0 -0.0197394 0.233991 0 -0.0217753 0.232186 0 -0.023916 0.230282 0 -0.0272803 0.227634 0 -0.0307923 0.224699 0 -0.0344513 0.221479 0 -0.0382569 0.217973 0 -0.0422087 0.214182 0 -0.0463061 0.210107 0 -0.0505486 0.205748 0 -0.0549356 0.201107 0 -0.0594665 0.196184 0 -0.0641408 0.190979 0 -0.0689578 0.185495 0 -0.0739168 0.179731 0 -0.0790172 0.173689 0 -0.0842582 0.16737 0 -0.0896392 0.160775 0 -0.0951593 0.153905 0 -0.100818 0.146761 0 -0.106614 0.139345 0 -0.112547 0.131657 0 -0.118616 0.123699 0 -0.124083 0.116092 0 -0.129281 0.108635 0 -0.134211 0.101326 0 -0.138872 0.094167 0 -0.143267 0.0871574 0 -0.147394 0.0802974 0 -0.151254 0.0735872 0 -0.154848 0.0670269 0 -0.158176 0.0606166 0 -0.16124 0.0543564 0 -0.164038 0.0482462 0 -0.166573 0.0422861 0 -0.168845 0.036476 0 -0.170854 0.030816 0 -0.172602 0.0253059 0 -0.174089 0.0199456 0 -0.175316 0.014735 0 -0.176283 0.009674 0 -0.176993 0.00476239 0 -0.177445 -5.07129e-11 0 -1.50533e-06 0.249999 0 -1.38052e-06 0.249999 0 -1.38523e-06 0.249999 0 -1.51997e-06 0.249999 0 -1.78522e-06 0.249999 0 -2.18147e-06 0.249999 0 -2.70918e-06 0.249999 0 -3.36877e-06 0.249999 0 -4.16067e-06 0.249998 0 -5.08526e-06 0.249998 0 -6.14294e-06 0.249998 0 -7.33406e-06 0.249997 0 -8.65895e-06 0.249997 0 -1.01179e-05 0.249996 0 -1.17113e-05 0.249996 0 -1.34393e-05 0.249995 0 -1.53022e-05 0.249994 0 -1.73003e-05 0.249994 0 -1.94337e-05 0.249993 0 -2.17027e-05 0.249992 0 -2.41074e-05 0.249991 0 -1.77061e-05 0.249996 0 -1.655e-05 0.249998 0 -2.06516e-05 0.249996 0 -3.00226e-05 0.249991 0 -4.46739e-05 0.249983 0 -6.46155e-05 0.249972 0 -8.98565e-05 0.249958 0 -0.000120405 0.24994 0 -0.000156269 0.249919 0 -0.000197455 0.249895 0 -0.000243968 0.249867 0 -0.000295814 0.249837 0 -0.000352995 0.249803 0 -0.000415516 0.249766 0 -0.000483378 0.249725 0 -0.000556583 0.249681 0 -0.000635131 0.249634 0 -0.000719021 0.249584 0 -0.000808252 0.249531 0 -0.000902821 0.249474 0 -0.000968687 0.249505 0 -0.00113385 0.249443 0 -0.00139838 0.249288 0 -0.0017623 0.249038 0 -0.00222565 0.248694 0 -0.00278843 0.248257 0 -0.00345063 0.247725 0 -0.00421222 0.2471 0 -0.00507316 0.246381 0 -0.00603339 0.245568 0 -0.00709284 0.244661 0 -0.00825141 0.243661 0 -0.00950899 0.242567 0 -0.0108655 0.24138 0 -0.0123207 0.240099 0 -0.0138744 0.238725 0 -0.0155266 0.237258 0 -0.017277 0.235698 0 -0.0191254 0.234046 0 -0.0210716 0.232301 0 -0.024207 0.229859 0 -0.0275031 0.22712 0 -0.0309595 0.224085 0 -0.0345756 0.220753 0 -0.0383512 0.217125 0 -0.0422855 0.213203 0 -0.0463781 0.208986 0 -0.0506284 0.204476 0 -0.0550359 0.199673 0 -0.0595999 0.194578 0 -0.0643198 0.189193 0 -0.0691949 0.183517 0 -0.0742245 0.177553 0 -0.079408 0.171301 0 -0.0847446 0.164761 0 -0.0902335 0.157937 0 -0.095874 0.150827 0 -0.101665 0.143435 0 -0.107606 0.13576 0 -0.113697 0.127804 0 -0.119341 0.120092 0 -0.124712 0.112517 0 -0.129809 0.105081 0 -0.134634 0.0977839 0 -0.139186 0.0906255 0 -0.143466 0.0836063 0 -0.147474 0.0767264 0 -0.151212 0.0699859 0 -0.154678 0.063385 0 -0.157874 0.0569238 0 -0.160801 0.0506024 0 -0.163459 0.0444208 0 -0.165849 0.038379 0 -0.167971 0.0324771 0 -0.169827 0.026715 0 -0.171417 0.0210927 0 -0.172742 0.0156101 0 -0.173803 0.0102673 0 -0.174601 0.00506391 0 -0.175136 -5.82256e-11 0 -1.25823e-06 0.249999 0 -1.16213e-06 0.249999 0 -1.15903e-06 0.249999 0 -1.24929e-06 0.249999 0 -1.43326e-06 0.249999 0 -1.71129e-06 0.249999 0 -2.08369e-06 0.249999 0 -2.55077e-06 0.249999 0 -3.11283e-06 0.249999 0 -3.77016e-06 0.249998 0 -4.52303e-06 0.249998 0 -5.37167e-06 0.249998 0 -6.31635e-06 0.249997 0 -7.35727e-06 0.249997 0 -8.49465e-06 0.249997 0 -9.72869e-06 0.249996 0 -1.10596e-05 0.249996 0 -1.24874e-05 0.249995 0 -1.40125e-05 0.249995 0 -1.56348e-05 0.249994 0 -1.73545e-05 0.249993 0 -1.21483e-05 0.249997 0 -1.0827e-05 0.249998 0 -1.33997e-05 0.249997 0 -1.98752e-05 0.249994 0 -3.02612e-05 0.249988 0 -4.45654e-05 0.24998 0 -6.27943e-05 0.249969 0 -8.4954e-05 0.249956 0 -0.00011105 0.249941 0 -0.000141088 0.249923 0 -0.00017507 0.249902 0 -0.000213002 0.249879 0 -0.000254886 0.249854 0 -0.000300724 0.249826 0 -0.000350517 0.249796 0 -0.000404267 0.249764 0 -0.000461975 0.249729 0 -0.000523638 0.249691 0 -0.000589258 0.249651 0 -0.000658832 0.249609 0 -0.00067312 0.249662 0 -0.000779688 0.249628 0 -0.000978592 0.249508 0 -0.00126987 0.249301 0 -0.00165355 0.249006 0 -0.00212965 0.248625 0 -0.00269815 0.248157 0 -0.00335904 0.247601 0 -0.00411229 0.246959 0 -0.00495783 0.24623 0 -0.00589561 0.245414 0 -0.00692553 0.244511 0 -0.00804752 0.243522 0 -0.00926144 0.242446 0 -0.0105672 0.241283 0 -0.0119646 0.240035 0 -0.0134535 0.2387 0 -0.0150338 0.237279 0 -0.0167052 0.235772 0 -0.0184676 0.234179 0 -0.021378 0.231938 0 -0.024461 0.22939 0 -0.0277161 0.226536 0 -0.031143 0.223376 0 -0.0347411 0.219912 0 -0.03851 0.216143 0 -0.042449 0.212071 0 -0.0465577 0.207697 0 -0.0508355 0.20302 0 -0.0552817 0.198043 0 -0.0598958 0.192765 0 -0.0646769 0.187188 0 -0.0696246 0.181313 0 -0.0747379 0.17514 0 -0.0800163 0.168672 0 -0.0854589 0.161908 0 -0.0910649 0.154851 0 -0.0968335 0.147501 0 -0.102764 0.13986 0 -0.108855 0.131929 0 -0.114663 0.124125 0 -0.120193 0.116447 0 -0.125446 0.108895 0 -0.130422 0.101469 0 -0.135121 0.0941701 0 -0.139544 0.0869982 0 -0.143691 0.0799533 0 -0.147563 0.0730358 0 -0.151159 0.0662458 0 -0.154482 0.0595835 0 -0.157531 0.0530489 0 -0.160306 0.0466423 0 -0.16281 0.0403636 0 -0.165042 0.034213 0 -0.167003 0.0281906 0 -0.168694 0.0222962 0 -0.170116 0.01653 0 -0.171269 0.0108919 0 -0.172156 0.00538196 0 -0.172776 -6.6855e-11 0 -1.05066e-06 0.249999 0 -9.79669e-07 0.249999 0 -9.70