<?xml version="1.0"?> 
<VTKFile type="StructuredGrid" version="0.1"> 
<StructuredGrid WholeExtent="0 100 0 100 0 0"> 
<Piece Extent="0 100 0 100 0 0"> 
<PointData Vectors="Mechanisum">
<DataArray type="Float32" Name="Mechanisum" format="ascii" NumberOfComponents="3"> 
5.5503e-08 0.249999 0 5.60496e-08 0.249999 0 5.65926e-08 0.249999 0 5.71319e-08 0.249999 0 5.76676e-08 0.249999 0 5.81996e-08 0.249999 0 5.87279e-08 0.249999 0 5.92525e-08 0.249999 0 5.97735e-08 0.249999 0 6.02908e-08 0.249999 0 6.08044e-08 0.249999 0 6.13144e-08 0.249999 0 6.18207e-08 0.249999 0 6.23233e-08 0.249999 0 6.28223e-08 0.249999 0 6.33176e-08 0.249999 0 6.38092e-08 0.249999 0 6.42972e-08 0.249999 0 6.47815e-08 0.249999 0 6.52621e-08 0.249999 0 6.5739e-08 0.249999 0 6.6158e-08 0.249999 0 6.65872e-08 0.249999 0 6.70265e-08 0.249999 0 6.7476e-08 0.249999 0 6.79356e-08 0.249999 0 6.84054e-08 0.249999 0 6.88854e-08 0.249999 0 6.93755e-08 0.249999 0 6.98758e-08 0.249999 0 7.03863e-08 0.249999 0 7.09069e-08 0.249999 0 7.14377e-08 0.249999 0 7.19787e-08 0.249999 0 7.25298e-08 0.249999 0 7.30911e-08 0.249999 0 7.36625e-08 0.249999 0 7.42442e-08 0.249999 0 7.48359e-08 0.249999 0 7.54379e-08 0.249999 0 7.605e-08 0.249999 0 7.67754e-08 0.249999 0 7.75146e-08 0.249999 0 7.82676e-08 0.249999 0 7.90345e-08 0.249999 0 7.98151e-08 0.249999 0 8.06096e-08 0.249999 0 8.14179e-08 0.249999 0 8.22399e-08 0.249999 0 8.30758e-08 0.249999 0 8.39256e-08 0.249999 0 8.47891e-08 0.249999 0 8.56664e-08 0.249999 0 8.65576e-08 0.249999 0 8.74625e-08 0.249999 0 8.83813e-08 0.249999 0 8.93139e-08 0.249999 0 9.02603e-08 0.249999 0 9.12205e-08 0.25 0 9.21945e-08 0.25 0 9.31824e-08 0.25 0 9.40875e-08 0.25 0 9.50161e-08 0.25 0 9.59683e-08 0.25 0 9.69439e-08 0.25 0 9.7943e-08 0.25 0 9.89655e-08 0.25 0 1.00012e-07 0.25 0 1.01081e-07 0.25 0 1.02174e-07 0.25 0 1.03291e-07 0.25 0 1.04431e-07 0.25 0 1.05594e-07 0.25 0 1.06781e-07 0.25 0 1.07992e-07 0.25 0 1.09226e-07 0.25 0 1.10483e-07 0.25 0 1.11764e-07 0.25 0 1.13069e-07 0.25 0 1.14397e-07 0.25 0 1.15748e-07 0.25 0 1.17094e-07 0.25 0 1.18447e-07 0.25 0 1.19809e-07 0.25 0 1.21178e-07 0.25 0 1.22555e-07 0.25 0 1.2394e-07 0.25 0 1.25334e-07 0.25 0 1.26735e-07 0.25 0 1.28144e-07 0.25 0 1.29561e-07 0.25 0 1.30986e-07 0.25 0 1.32419e-07 0.25 0 1.3386e-07 0.25 0 1.35309e-07 0.25 0 1.36766e-07 0.25 0 1.3823e-07 0.25 0 1.39703e-07 0.25 0 1.41184e-07 0.25 0 1.42672e-07 0.25 0 1.44169e-07 0.25 0 6.82444e-08 0.249999 0 6.87931e-08 0.249999 0 6.93365e-08 0.249999 0 6.98748e-08 0.249999 0 7.04079e-08 0.249999 0 7.09358e-08 0.249999 0 7.14585e-08 0.249999 0 7.1976e-08 0.249999 0 7.24883e-08 0.249999 0 7.29955e-08 0.249999 0 7.34974e-08 0.249999 0 7.39942e-08 0.249999 0 7.44857e-08 0.249999 0 7.49721e-08 0.249999 0 7.54533e-08 0.249999 0 7.59293e-08 0.249999 0 7.64002e-08 0.249999 0 7.68658e-08 0.249999 0 7.73262e-08 0.249999 0 7.77815e-08 0.249999 0 7.82316e-08 0.249999 0 7.86521e-08 0.249999 0 7.9082e-08 0.249999 0 7.95214e-08 0.249999 0 7.99702e-08 0.249999 0 8.04285e-08 0.249999 0 8.08962e-08 0.249999 0 8.13733e-08 0.249999 0 8.18599e-08 0.249999 0 8.23559e-08 0.249999 0 8.28614e-08 0.249999 0 8.33763e-08 0.249999 0 8.39006e-08 0.249999 0 8.44344e-08 0.249999 0 8.49776e-08 0.249999 0 8.55303e-08 0.249999 0 8.60924e-08 0.249999 0 8.66639e-08 0.249999 0 8.72449e-08 0.249999 0 8.78353e-08 0.249999 0 8.84352e-08 0.249999 0 8.91454e-08 0.249999 0 8.98684e-08 0.249999 0 9.06041e-08 0.249999 0 9.13526e-08 0.249999 0 9.21138e-08 0.249999 0 9.28878e-08 0.249999 0 9.36746e-08 0.249999 0 9.44741e-08 0.249999 0 9.52863e-08 0.249999 0 9.61114e-08 0.249999 0 9.69492e-08 0.249999 0 9.77997e-08 0.249999 0 9.8663e-08 0.249999 0 9.95391e-08 0.249999 0 1.00428e-07 0.249999 0 1.0133e-07 0.249999 0 1.02244e-07 0.249999 0 1.03171e-07 0.25 0 1.04111e-07 0.25 0 1.05063e-07 0.25 0 1.05947e-07 0.25 0 1.06853e-07 0.25 0 1.07781e-07 0.25 0 1.08732e-07 0.25 0 1.09705e-07 0.25 0 1.107e-07 0.25 0 1.11718e-07 0.25 0 1.12758e-07 0.25 0 1.13821e-07 0.25 0 1.14905e-07 0.25 0 1.16013e-07 0.25 0 1.17142e-07 0.25 0 1.18294e-07 0.25 0 1.19468e-07 0.25 0 1.20665e-07 0.25 0 1.21884e-07 0.25 0 1.23125e-07 0.25 0 1.24388e-07 0.25 0 1.25674e-07 0.25 0 1.26983e-07 0.25 0 1.28328e-07 0.25 0 1.29677e-07 0.25 0 1.3103e-07 0.25 0 1.32387e-07 0.25 0 1.33749e-07 0.25 0 1.35115e-07 0.25 0 1.36485e-07 0.25 0 1.37859e-07 0.25 0 1.39237e-07 0.25 0 1.40619e-07 0.25 0 1.42006e-07 0.25 0 1.43396e-07 0.25 0 1.44791e-07 0.25 0 1.4619e-07 0.25 0 1.47593e-07 0.25 0 1.49e-07 0.25 0 1.50412e-07 0.25 0 1.51827e-07 0.25 0 1.53247e-07 0.25 0 1.54671e-07 0.25 0 8.09408e-08 0.249999 0 8.14904e-08 0.249999 0 8.20336e-08 0.249999 0 8.25702e-08 0.249999 0 8.31003e-08 0.249999 0 8.36239e-08 0.249999 0 8.4141e-08 0.249999 0 8.46517e-08 0.249999 0 8.51558e-08 0.249999 0 8.56534e-08 0.249999 0 8.61445e-08 0.249999 0 8.66292e-08 0.249999 0 8.71073e-08 0.249999 0 8.75789e-08 0.249999 0 8.8044e-08 0.249999 0 8.85026e-08 0.249999 0 8.89547e-08 0.249999 0 8.94004e-08 0.249999 0 8.98395e-08 0.249999 0 9.02721e-08 0.249999 0 9.06982e-08 0.249999 0 9.11203e-08 0.249999 0 9.15511e-08 0.249999 0 9.19906e-08 0.249999 0 9.24388e-08 0.249999 0 9.28957e-08 0.249999 0 9.33613e-08 0.249999 0 9.38356e-08 0.249999 0 9.43186e-08 0.249999 0 9.48102e-08 0.249999 0 9.53106e-08 0.249999 0 9.58197e-08 0.249999 0 9.63375e-08 0.249999 0 9.68639e-08 0.249999 0 9.73991e-08 0.249999 0 9.79429e-08 0.249999 0 9.84955e-08 0.249999 0 9.90567e-08 0.249999 0 9.96267e-08 0.249999 0 1.00205e-07 0.249999 0 1.00793e-07 0.249999 0 1.01487e-07 0.249999 0 1.02194e-07 0.249999 0 1.02912e-07 0.249999 0 1.03642e-07 0.249999 0 1.04384e-07 0.249999 0 1.05138e-07 0.249999 0 1.05903e-07 0.249999 0 1.0668e-07 0.249999 0 1.07469e-07 0.249999 0 1.0827e-07 0.249999 0 1.09082e-07 0.249999 0 1.09906e-07 0.249999 0 1.10742e-07 0.249999 0 1.1159e-07 0.249999 0 1.12449e-07 0.249999 0 1.1332e-07 0.249999 0 1.14203e-07 0.249999 0 1.15098e-07 0.25 0 1.16004e-07 0.25 0 1.16923e-07 0.25 0 1.17786e-07 0.25 0 1.18671e-07 0.25 0 1.19577e-07 0.25 0 1.20504e-07 0.25 0 1.21453e-07 0.25 0 1.22422e-07 0.25 0 1.23413e-07 0.25 0 1.24425e-07 0.25 0 1.25458e-07 0.25 0 1.26512e-07 0.25 0 1.27588e-07 0.25 0 1.28684e-07 0.25 0 1.29802e-07 0.25 0 1.30941e-07 0.25 0 1.32101e-07 0.25 0 1.33283e-07 0.25 0 1.34485e-07 0.25 0 1.35709e-07 0.25 0 1.36954e-07 0.25 0 1.3822e-07 0.25 0 1.39562e-07 0.25 0 1.40905e-07 0.25 0 1.42249e-07 0.25 0 1.43593e-07 0.25 0 1.44939e-07 0.25 0 1.46284e-07 0.25 0 1.47631e-07 0.25 0 1.48978e-07 0.25 0 1.50326e-07 0.25 0 1.51675e-07 0.25 0 1.53025e-07 0.25 0 1.54375e-07 0.25 0 1.55726e-07 0.25 0 1.57077e-07 0.25 0 1.5843e-07 0.25 0 1.59783e-07 0.25 0 1.61136e-07 0.25 0 1.62491e-07 0.25 0 1.63846e-07 0.25 0 1.65202e-07 0.25 0 9.35921e-08 0.249999 0 9.41417e-08 0.249999 0 9.46837e-08 0.249999 0 9.52181e-08 0.249999 0 9.57448e-08 0.249999 0 9.6264e-08 0.249999 0 9.67756e-08 0.249999 0 9.72795e-08 0.249999 0 9.77759e-08 0.249999 0 9.82647e-08 0.249999 0 9.87458e-08 0.249999 0 9.92194e-08 0.249999 0 9.96853e-08 0.249999 0 1.00144e-07 0.249999 0 1.00594e-07 0.249999 0 1.01037e-07 0.249999 0 1.01473e-07 0.249999 0 1.01901e-07 0.249999 0 1.02321e-07 0.249999 0 1.02734e-07 0.249999 0 1.03139e-07 0.249999 0 1.03563e-07 0.249999 0 1.03995e-07 0.249999 0 1.04434e-07 0.249999 0 1.04882e-07 0.249999 0 1.05337e-07 0.249999 0 1.05801e-07 0.249999 0 1.06272e-07 0.249999 0 1.06752e-07 0.249999 0 1.07239e-07 0.249999 0 1.07734e-07 0.249999 0 1.08237e-07 0.249999 0 1.08748e-07 0.249999 0 1.09267e-07 0.249999 0 1.09794e-07 0.249999 0 1.10329e-07 0.249999 0 1.10872e-07 0.249999 0 1.11423e-07 0.249999 0 1.11981e-07 0.249999 0 1.12548e-07 0.249999 0 1.13122e-07 0.249999 0 1.13802e-07 0.249999 0 1.14492e-07 0.249999 0 1.15193e-07 0.249999 0 1.15904e-07 0.249999 0 1.16627e-07 0.249999 0 1.1736e-07 0.249999 0 1.18104e-07 0.249999 0 1.18859e-07 0.249999 0 1.19625e-07 0.249999 0 1.20401e-07 0.249999 0 1.21188e-07 0.249999 0 1.21986e-07 0.249999 0 1.22795e-07 0.249999 0 1.23615e-07 0.249999 0 1.24445e-07 0.249999 0 1.25287e-07 0.249999 0 1.26139e-07 0.249999 0 1.27001e-07 0.25 0 1.27875e-07 0.25 0 1.2876e-07 0.25 0 1.29605e-07 0.25 0 1.3047e-07 0.25 0 1.31355e-07 0.25 0 1.32261e-07 0.25 0 1.33186e-07 0.25 0 1.34131e-07 0.25 0 1.35096e-07 0.25 0 1.36081e-07 0.25 0 1.37086e-07 0.25 0 1.38111e-07 0.25 0 1.39156e-07 0.25 0 1.40221e-07 0.25 0 1.41306e-07 0.25 0 1.42411e-07 0.25 0 1.43536e-07 0.25 0 1.44681e-07 0.25 0 1.45846e-07 0.25 0 1.47031e-07 0.25 0 1.48236e-07 0.25 0 1.4946e-07 0.25 0 1.50798e-07 0.25 0 1.52133e-07 0.25 0 1.53466e-07 0.25 0 1.54796e-07 0.25 0 1.56124e-07 0.25 0 1.5745e-07 0.25 0 1.58773e-07 0.25 0 1.60094e-07 0.25 0 1.61412e-07 0.25 0 1.62729e-07 0.25 0 1.64043e-07 0.25 0 1.65354e-07 0.25 0 1.66663e-07 0.25 0 1.6797e-07 0.25 0 1.69275e-07 0.25 0 1.70577e-07 0.25 0 1.71877e-07 0.25 0 1.73174e-07 0.25 0 1.7447e-07 0.25 0 1.75762e-07 0.25 0 1.06198e-07 0.249999 0 1.06747e-07 0.249999 0 1.07287e-07 0.249999 0 1.07818e-07 0.249999 0 1.08341e-07 0.249999 0 1.08856e-07 0.249999 0 1.09362e-07 0.249999 0 1.0986e-07 0.249999 0 1.10349e-07 0.249999 0 1.10829e-07 0.249999 0 1.11301e-07 0.249999 0 1.11765e-07 0.249999 0 1.1222e-07 0.249999 0 1.12666e-07 0.249999 0 1.13104e-07 0.249999 0 1.13534e-07 0.249999 0 1.13955e-07 0.249999 0 1.14367e-07 0.249999 0 1.14771e-07 0.249999 0 1.15167e-07 0.249999 0 1.15554e-07 0.249999 0 1.1598e-07 0.249999 0 1.16412e-07 0.249999 0 1.16852e-07 0.249999 0 1.17299e-07 0.249999 0 1.17753e-07 0.249999 0 1.18215e-07 0.249999 0 1.18683e-07 0.249999 0 1.19159e-07 0.249999 0 1.19642e-07 0.249999 0 1.20132e-07 0.249999 0 1.20629e-07 0.249999 0 1.21133e-07 0.249999 0 1.21644e-07 0.249999 0 1.22163e-07 0.249999 0 1.22689e-07 0.249999 0 1.23221e-07 0.249999 0 1.23761e-07 0.249999 0 1.24309e-07 0.249999 0 1.24863e-07 0.249999 0 1.25424e-07 0.249999 0 1.26088e-07 0.249999 0 1.26761e-07 0.249999 0 1.27445e-07 0.249999 0 1.28138e-07 0.249999 0 1.28841e-07 0.249999 0 1.29554e-07 0.249999 0 1.30277e-07 0.249999 0 1.3101e-07 0.249999 0 1.31752e-07 0.249999 0 1.32505e-07 0.249999 0 1.33267e-07 0.249999 0 1.3404e-07 0.249999 0 1.34822e-07 0.249999 0 1.35614e-07 0.249999 0 1.36416e-07 0.249999 0 1.37228e-07 0.249999 0 1.3805e-07 0.249999 0 1.38881e-07 0.25 0 1.39723e-07 0.25 0 1.40575e-07 0.25 0 1.41403e-07 0.25 0 1.4225e-07 0.25 0 1.43116e-07 0.25 0 1.44001e-07 0.25 0 1.44904e-07 0.25 0 1.45827e-07 0.25 0 1.46767e-07 0.25 0 1.47727e-07 0.25 0 1.48705e-07 0.25 0 1.49702e-07 0.25 0 1.50718e-07 0.25 0 1.51753e-07 0.25 0 1.52806e-07 0.25 0 1.53878e-07 0.25 0 1.54969e-07 0.25 0 1.56078e-07 0.25 0 1.57207e-07 0.25 0 1.58354e-07 0.25 0 1.59519e-07 0.25 0 1.60704e-07 0.25 0 1.62034e-07 0.25 0 1.63359e-07 0.25 0 1.6468e-07 0.25 0 1.65995e-07 0.25 0 1.67305e-07 0.25 0 1.6861e-07 0.25 0 1.6991e-07 0.25 0 1.71205e-07 0.25 0 1.72495e-07 0.25 0 1.7378e-07 0.25 0 1.7506e-07 0.25 0 1.76335e-07 0.25 0 1.77605e-07 0.25 0 1.78869e-07 0.25 0 1.80129e-07 0.25 0 1.81384e-07 0.25 0 1.82633e-07 0.25 0 1.83878e-07 0.25 0 1.85117e-07 0.25 0 1.86352e-07 0.25 0 1.18759e-07 0.249999 0 1.19306e-07 0.249999 0 1.19843e-07 0.249999 0 1.20371e-07 0.249999 0 1.2089e-07 0.249999 0 1.214e-07 0.249999 0 1.21901e-07 0.249999 0 1.22392e-07 0.249999 0 1.22874e-07 0.249999 0 1.23347e-07 0.249999 0 1.23811e-07 0.249999 0 1.24265e-07 0.249999 0 1.24711e-07 0.249999 0 1.25147e-07 0.249999 0 1.25574e-07 0.249999 0 1.25992e-07 0.249999 0 1.264e-07 0.249999 0 1.268e-07 0.249999 0 1.2719e-07 0.249999 0 1.27571e-07 0.249999 0 1.27943e-07 0.249999 0 1.2837e-07 0.249999 0 1.28804e-07 0.249999 0 1.29244e-07 0.249999 0 1.29691e-07 0.249999 0 1.30144e-07 0.249999 0 1.30603e-07 0.249999 0 1.31068e-07 0.249999 0 1.3154e-07 0.249999 0 1.32019e-07 0.249999 0 1.32503e-07 0.249999 0 1.32994e-07 0.249999 0 1.33492e-07 0.249999 0 1.33995e-07 0.249999 0 1.34505e-07 0.249999 0 1.35022e-07 0.249999 0 1.35544e-07 0.249999 0 1.36073e-07 0.249999 0 1.36609e-07 0.249999 0 1.3715e-07 0.249999 0 1.37699e-07 0.249999 0 1.38346e-07 0.249999 0 1.39003e-07 0.249999 0 1.39669e-07 0.249999 0 1.40343e-07 0.249999 0 1.41027e-07 0.249999 0 1.4172e-07 0.249999 0 1.42422e-07 0.249999 0 1.43133e-07 0.249999 0 1.43853e-07 0.249999 0 1.44581e-07 0.249999 0 1.45319e-07 0.249999 0 1.46066e-07 0.249999 0 1.46822e-07 0.249999 0 1.47587e-07 0.249999 0 1.48362e-07 0.249999 0 1.49145e-07 0.249999 0 1.49937e-07 0.249999 0 1.50738e-07 0.25 0 1.51548e-07 0.25 0 1.52367e-07 0.25 0 1.53181e-07 0.25 0 1.54012e-07 0.25 0 1.5486e-07 0.25 0 1.55725e-07 0.25 0 1.56608e-07 0.25 0 1.57509e-07 0.25 0 1.58427e-07 0.25 0 1.59363e-07 0.25 0 1.60316e-07 0.25 0 1.61286e-07 0.25 0 1.62274e-07 0.25 0 1.63279e-07 0.25 0 1.64302e-07 0.25 0 1.65342e-07 0.25 0 1.664e-07 0.25 0 1.67475e-07 0.25 0 1.68567e-07 0.25 0 1.69677e-07 0.25 0 1.70805e-07 0.25 0 1.7195e-07 0.25 0 1.73271e-07 0.25 0 1.74585e-07 0.25 0 1.75891e-07 0.25 0 1.7719e-07 0.25 0 1.78482e-07 0.25 0 1.79766e-07 0.25 0 1.81043e-07 0.25 0 1.82312e-07 0.25 0 1.83574e-07 0.25 0 1.84829e-07 0.25 0 1.86076e-07 0.25 0 1.87316e-07 0.25 0 1.88549e-07 0.25 0 1.89774e-07 0.25 0 1.90992e-07 0.25 0 1.92203e-07 0.25 0 1.93406e-07 0.25 0 1.94601e-07 0.25 0 1.9579e-07 0.25 0 1.96971e-07 0.25 0 1.31275e-07 0.249999 0 1.31819e-07 0.249999 0 1.32353e-07 0.249999 0 1.32877e-07 0.249999 0 1.33391e-07 0.249999 0 1.33896e-07 0.249999 0 1.34391e-07 0.249999 0 1.34876e-07 0.249999 0 1.35352e-07 0.249999 0 1.35818e-07 0.249999 0 1.36275e-07 0.249999 0 1.36721e-07 0.249999 0 1.37158e-07 0.249999 0 1.37586e-07 0.249999 0 1.38003e-07 0.249999 0 1.38411e-07 0.249999 0 1.3881e-07 0.249999 0 1.39198e-07 0.249999 0 1.39577e-07 0.249999 0 1.39947e-07 0.249999 0 1.40306e-07 0.249999 0 1.40736e-07 0.249999 0 1.41171e-07 0.249999 0 1.41611e-07 0.249999 0 1.42057e-07 0.249999 0 1.42509e-07 0.249999 0 1.42966e-07 0.249999 0 1.43428e-07 0.249999 0 1.43896e-07 0.249999 0 1.4437e-07 0.249999 0 1.44849e-07 0.249999 0 1.45334e-07 0.249999 0 1.45824e-07 0.249999 0 1.4632e-07 0.249999 0 1.46821e-07 0.249999 0 1.47328e-07 0.249999 0 1.4784e-07 0.249999 0 1.48358e-07 0.249999 0 1.48882e-07 0.249999 0 1.49411e-07 0.249999 0 1.49945e-07 0.249999 0 1.50577e-07 0.249999 0 1.51216e-07 0.249999 0 1.51864e-07 0.249999 0 1.52521e-07 0.249999 0 1.53185e-07 0.249999 0 1.53858e-07 0.249999 0 1.54539e-07 0.249999 0 1.55228e-07 0.249999 0 1.55925e-07 0.249999 0 1.56631e-07 0.249999 0 1.57344e-07 0.249999 0 1.58066e-07 0.249999 0 1.58797e-07 0.249999 0 1.59535e-07 0.249999 0 1.60282e-07 0.249999 0 1.61037e-07 0.249999 0 1.618e-07 0.249999 0 1.62571e-07 0.25 0 1.63351e-07 0.25 0 1.64138e-07 0.25 0 1.64938e-07 0.25 0 1.65754e-07 0.25 0 1.66586e-07 0.25 0 1.67434e-07 0.25 0 1.68298e-07 0.25 0 1.69178e-07 0.25 0 1.70075e-07 0.25 0 1.70988e-07 0.25 0 1.71917e-07 0.25 0 1.72861e-07 0.25 0 1.73823e-07 0.25 0 1.748e-07 0.25 0 1.75793e-07 0.25 0 1.76803e-07 0.25 0 1.77828e-07 0.25 0 1.7887e-07 0.25 0 1.79928e-07 0.25 0 1.81002e-07 0.25 0 1.82093e-07 0.25 0 1.83199e-07 0.25 0 1.84509e-07 0.25 0 1.85809e-07 0.25 0 1.871e-07 0.25 0 1.88382e-07 0.25 0 1.89654e-07 0.25 0 1.90917e-07 0.25 0 1.92171e-07 0.25 0 1.93415e-07 0.25 0 1.9465e-07 0.25 0 1.95876e-07 0.25 0 1.97092e-07 0.25 0 1.98299e-07 0.25 0 1.99497e-07 0.25 0 2.00685e-07 0.25 0 2.01864e-07 0.25 0 2.03034e-07 0.25 0 2.04194e-07 0.25 0 2.05345e-07 0.25 0 2.06486e-07 0.25 0 2.07618e-07 0.25 0 1.43746e-07 0.249999 0 1.44285e-07 0.249999 0 1.44815e-07 0.249999 0 1.45334e-07 0.249999 0 1.45844e-07 0.249999 0 1.46344e-07 0.249999 0 1.46833e-07 0.249999 0 1.47313e-07 0.249999 0 1.47783e-07 0.249999 0 1.48243e-07 0.249999 0 1.48692e-07 0.249999 0 1.49132e-07 0.249999 0 1.49562e-07 0.249999 0 1.49982e-07 0.249999 0 1.50392e-07 0.249999 0 1.50792e-07 0.249999 0 1.51183e-07 0.249999 0 1.51563e-07 0.249999 0 1.51933e-07 0.249999 0 1.52293e-07 0.249999 0 1.52644e-07 0.249999 0 1.53075e-07 0.249999 0 1.53511e-07 0.249999 0 1.53952e-07 0.249999 0 1.54397e-07 0.249999 0 1.54848e-07 0.249999 0 1.55303e-07 0.249999 0 1.55762e-07 0.249999 0 1.56226e-07 0.249999 0 1.56695e-07 0.249999 0 1.57169e-07 0.249999 0 1.57647e-07 0.249999 0 1.58131e-07 0.249999 0 1.58618e-07 0.249999 0 1.59111e-07 0.249999 0 1.59608e-07 0.249999 0 1.6011e-07 0.249999 0 1.60616e-07 0.249999 0 1.61127e-07 0.249999 0 1.61643e-07 0.249999 0 1.62164e-07 0.249999 0 1.62779e-07 0.249999 0 1.63402e-07 0.249999 0 1.64032e-07 0.249999 0 1.6467e-07 0.249999 0 1.65315e-07 0.249999 0 1.65968e-07 0.249999 0 1.66628e-07 0.249999 0 1.67295e-07 0.249999 0 1.6797e-07 0.249999 0 1.68653e-07 0.249999 0 1.69342e-07 0.249999 0 1.7004e-07 0.249999 0 1.70745e-07 0.249999 0 1.71457e-07 0.249999 0 1.72177e-07 0.249999 0 1.72904e-07 0.249999 0 1.73638e-07 0.249999 0 1.74381e-07 0.25 0 1.7513e-07 0.25 0 1.75887e-07 0.25 0 1.76675e-07 0.25 0 1.77477e-07 0.25 0 1.78294e-07 0.25 0 1.79126e-07 0.25 0 1.79973e-07 0.25 0 1.80835e-07 0.25 0 1.81711e-07 0.25 0 1.82602e-07 0.25 0 1.83508e-07 0.25 0 1.84429e-07 0.25 0 1.85365e-07 0.25 0 1.86315e-07 0.25 0 1.8728e-07 0.25 0 1.8826e-07 0.25 0 1.89255e-07 0.25 0 1.90265e-07 0.25 0 1.91289e-07 0.25 0 1.92328e-07 0.25 0 1.93382e-07 0.25 0 1.94451e-07 0.25 0 1.95747e-07 0.25 0 1.97033e-07 0.25 0 1.98307e-07 0.25 0 1.9957e-07 0.25 0 2.00823e-07 0.25 0 2.02064e-07 0.25 0 2.03295e-07 0.25 0 2.04514e-07 0.25 0 2.05723e-07 0.25 0 2.0692e-07 0.25 0 2.08107e-07 0.25 0 2.09283e-07 0.25 0 2.10448e-07 0.25 0 2.11602e-07 0.25 0 2.12745e-07 0.25 0 2.13877e-07 0.25 0 2.14998e-07 0.25 0 2.16108e-07 0.25 0 2.17207e-07 0.25 0 2.18295e-07 0.25 0 1.56172e-07 0.249999 0 1.56706e-07 0.249999 0 1.5723e-07 0.249999 0 1.57745e-07 0.249999 0 1.58249e-07 0.249999 0 1.58743e-07 0.249999 0 1.59228e-07 0.249999 0 1.59702e-07 0.249999 0 1.60166e-07 0.249999 0 1.6062e-07 0.249999 0 1.61064e-07 0.249999 0 1.61499e-07 0.249999 0 1.61923e-07 0.249999 0 1.62337e-07 0.249999 0 1.62741e-07 0.249999 0 1.63135e-07 0.249999 0 1.63519e-07 0.249999 0 1.63893e-07 0.249999 0 1.64257e-07 0.249999 0 1.64611e-07 0.249999 0 1.64955e-07 0.249999 0 1.65389e-07 0.249999 0 1.65826e-07 0.249999 0 1.66267e-07 0.249999 0 1.66712e-07 0.249999 0 1.67161e-07 0.249999 0 1.67614e-07 0.249999 0 1.68071e-07 0.249999 0 1.68531e-07 0.249999 0 1.68995e-07 0.249999 0 1.69463e-07 0.249999 0 1.69935e-07 0.249999 0 1.70411e-07 0.249999 0 1.7089e-07 0.249999 0 1.71374e-07 0.249999 0 1.71861e-07 0.249999 0 1.72352e-07 0.249999 0 1.72847e-07 0.249999 0 1.73346e-07 0.249999 0 1.73848e-07 0.249999 0 1.74355e-07 0.249999 0 1.74954e-07 0.249999 0 1.75559e-07 0.249999 0 1.76172e-07 0.249999 0 1.76791e-07 0.249999 0 1.77417e-07 0.249999 0 1.78049e-07 0.249999 0 1.78689e-07 0.249999 0 1.79335e-07 0.249999 0 1.79988e-07 0.249999 0 1.80647e-07 0.249999 0 1.81314e-07 0.249999 0 1.81987e-07 0.249999 0 1.82666e-07 0.249999 0 1.83353e-07 0.249999 0 1.84046e-07 0.249999 0 1.84746e-07 0.249999 0 1.85453e-07 0.249999 0 1.86167e-07 0.25 0 1.86887e-07 0.25 0 1.87614e-07 0.25 0 1.88391e-07 0.25 0 1.89182e-07 0.25 0 1.89986e-07 0.25 0 1.90803e-07 0.25 0 1.91634e-07 0.25 0 1.92478e-07 0.25 0 1.93336e-07 0.25 0 1.94207e-07 0.25 0 1.95091e-07 0.25 0 1.95989e-07 0.25 0 1.96901e-07 0.25 0 1.97825e-07 0.25 0 1.98763e-07 0.25 0 1.99715e-07 0.25 0 2.0068e-07 0.25 0 2.01658e-07 0.25 0 2.0265e-07 0.25 0 2.03655e-07 0.25 0 2.04674e-07 0.25 0 2.05706e-07 0.25 0 2.06987e-07 0.25 0 2.08255e-07 0.25 0 2.09511e-07 0.25 0 2.10755e-07 0.25 0 2.11987e-07 0.25 0 2.13206e-07 0.25 0 2.14414e-07 0.25 0 2.15609e-07 0.25 0 2.16792e-07 0.25 0 2.17963e-07 0.25 0 2.19121e-07 0.25 0 2.20268e-07 0.25 0 2.21402e-07 0.25 0 2.22524e-07 0.25 0 2.23634e-07 0.25 0 2.24732e-07 0.25 0 2.25818e-07 0.25 0 2.26891e-07 0.25 0 2.27953e-07 0.25 0 2.29002e-07 0.25 0 1.68552e-07 0.249999 0 1.69081e-07 0.249999 0 1.69599e-07 0.249999 0 1.70108e-07 0.249999 0 1.70606e-07 0.249999 0 1.71095e-07 0.249999 0 1.71574e-07 0.249999 0 1.72043e-07 0.249999 0 1.72502e-07 0.249999 0 1.72951e-07 0.249999 0 1.73391e-07 0.249999 0 1.7382e-07 0.249999 0 1.7424e-07 0.249999 0 1.74649e-07 0.249999 0 1.75049e-07 0.249999 0 1.75439e-07 0.249999 0 1.75819e-07 0.249999 0 1.76189e-07 0.249999 0 1.7655e-07 0.249999 0 1.769e-07 0.249999 0 1.77241e-07 0.249999 0 1.77676e-07 0.249999 0 1.78115e-07 0.249999 0 1.78557e-07 0.249999 0 1.79002e-07 0.249999 0 1.79449e-07 0.249999 0 1.799e-07 0.249999 0 1.80353e-07 0.249999 0 1.8081e-07 0.249999 0 1.81269e-07 0.249999 0 1.81732e-07 0.249999 0 1.82197e-07 0.249999 0 1.82665e-07 0.249999 0 1.83136e-07 0.249999 0 1.83611e-07 0.249999 0 1.84088e-07 0.249999 0 1.84568e-07 0.249999 0 1.85051e-07 0.249999 0 1.85537e-07 0.249999 0 1.86026e-07 0.249999 0 1.86518e-07 0.249999 0 1.871e-07 0.249999 0 1.87689e-07 0.249999 0 1.88283e-07 0.249999 0 1.88884e-07 0.249999 0 1.8949e-07 0.249999 0 1.90103e-07 0.249999 0 1.90722e-07 0.249999 0 1.91347e-07 0.249999 0 1.91977e-07 0.249999 0 1.92614e-07 0.249999 0 1.93258e-07 0.249999 0 1.93907e-07 0.249999 0 1.94562e-07 0.249999 0 1.95223e-07 0.249999 0 1.95891e-07 0.249999 0 1.96564e-07 0.249999 0 1.97244e-07 0.25 0 1.97929e-07 0.25 0 1.98621e-07 0.25 0 1.99319e-07 0.25 0 2.00087e-07 0.25 0 2.00867e-07 0.25 0 2.01659e-07 0.25 0 2.02464e-07 0.25 0 2.0328e-07 0.25 0 2.04108e-07 0.25 0 2.04949e-07 0.25 0 2.05801e-07 0.25 0 2.06665e-07 0.25 0 2.07541e-07 0.25 0 2.0843e-07 0.25 0 2.0933e-07 0.25 0 2.10242e-07 0.25 0 2.11167e-07 0.25 0 2.12103e-07 0.25 0 2.13051e-07 0.25 0 2.14011e-07 0.25 0 2.14984e-07 0.25 0 2.15968e-07 0.25 0 2.16964e-07 0.25 0 2.18227e-07 0.25 0 2.19476e-07 0.25 0 2.20713e-07 0.25 0 2.21936e-07 0.25 0 2.23146e-07 0.25 0 2.24344e-07 0.25 0 2.25528e-07 0.25 0 2.26699e-07 0.25 0 2.27857e-07 0.25 0 2.29003e-07 0.25 0 2.30135e-07 0.25 0 2.31254e-07 0.25 0 2.3236e-07 0.25 0 2.33453e-07 0.25 0 2.34533e-07 0.25 0 2.356e-07 0.25 0 2.36654e-07 0.25 0 2.37695e-07 0.25 0 2.38722e-07 0.25 0 2.39737e-07 0.25 0 1.80888e-07 0.249999 0 1.81409e-07 0.249999 0 1.81921e-07 0.249999 0 1.82423e-07 0.249999 0 1.82916e-07 0.249999 0 1.83399e-07 0.249999 0 1.83872e-07 0.249999 0 1.84336e-07 0.249999 0 1.84791e-07 0.249999 0 1.85236e-07 0.249999 0 1.85671e-07 0.249999 0 1.86097e-07 0.249999 0 1.86513e-07 0.249999 0 1.8692e-07 0.249999 0 1.87317e-07 0.249999 0 1.87705e-07 0.249999 0 1.88083e-07 0.249999 0 1.88452e-07 0.249999 0 1.88811e-07 0.249999 0 1.8916e-07 0.249999 0 1.895e-07 0.249999 0 1.89939e-07 0.249999 0 1.90379e-07 0.249999 0 1.90821e-07 0.249999 0 1.91265e-07 0.249999 0 1.91711e-07 0.249999 0 1.9216e-07 0.249999 0 1.9261e-07 0.249999 0 1.93063e-07 0.249999 0 1.93517e-07 0.249999 0 1.93974e-07 0.249999 0 1.94433e-07 0.249999 0 1.94893e-07 0.249999 0 1.95356e-07 0.249999 0 1.95821e-07 0.249999 0 1.96288e-07 0.249999 0 1.96757e-07 0.249999 0 1.97228e-07 0.249999 0 1.97701e-07 0.249999 0 1.98176e-07 0.249999 0 1.98654e-07 0.249999 0 1.99219e-07 0.249999 0 1.9979e-07 0.249999 0 2.00367e-07 0.249999 0 2.00948e-07 0.249999 0 2.01536e-07 0.249999 0 2.02129e-07 0.249999 0 2.02727e-07 0.249999 0 2.03331e-07 0.249999 0 2.0394e-07 0.249999 0 2.04554e-07 0.249999 0 2.05175e-07 0.249999 0 2.058e-07 0.249999 0 2.06431e-07 0.249999 0 2.07068e-07 0.249999 0 2.0771e-07 0.249999 0 2.08357e-07 0.249999 0 2.0901e-07 0.25 0 2.09668e-07 0.25 0 2.10332e-07 0.25 0 2.11001e-07 0.25 0 2.11762e-07 0.25 0 2.12534e-07 0.25 0 2.13316e-07 0.25 0 2.14109e-07 0.25 0 2.14912e-07 0.25 0 2.15725e-07 0.25 0 2.1655e-07 0.25 0 2.17385e-07 0.25 0 2.1823e-07 0.25 0 2.19086e-07 0.25 0 2.19952e-07 0.25 0 2.20829e-07 0.25 0 2.21717e-07 0.25 0 2.22615e-07 0.25 0 2.23524e-07 0.25 0 2.24443e-07 0.25 0 2.25373e-07 0.25 0 2.26313e-07 0.25 0 2.27264e-07 0.25 0 2.28225e-07 0.25 0 2.29468e-07 0.25 0 2.30696e-07 0.25 0 2.31912e-07 0.25 0 2.33114e-07 0.25 0 2.34302e-07 0.25 0 2.35477e-07 0.25 0 2.36638e-07 0.25 0 2.37786e-07 0.25 0 2.3892e-07 0.25 0 2.4004e-07 0.25 0 2.41147e-07 0.25 0 2.42241e-07 0.25 0 2.43321e-07 0.25 0 2.44387e-07 0.25 0 2.4544e-07 0.25 0 2.4648e-07 0.25 0 2.47506e-07 0.25 0 2.48518e-07 0.25 0 2.49517e-07 0.25 0 2.50502e-07 0.25 0 1.93178e-07 0.249999 0 1.93691e-07 0.249999 0 1.94196e-07 0.249999 0 1.94691e-07 0.249999 0 1.95177e-07 0.249999 0 1.95654e-07 0.249999 0 1.96122e-07 0.249999 0 1.96582e-07 0.249999 0 1.97032e-07 0.249999 0 1.97473e-07 0.249999 0 1.97906e-07 0.249999 0 1.98329e-07 0.249999 0 1.98743e-07 0.249999 0 1.99149e-07 0.249999 0 1.99545e-07 0.249999 0 1.99932e-07 0.249999 0 2.00311e-07 0.249999 0 2.0068e-07 0.249999 0 2.0104e-07 0.249999 0 2.01392e-07 0.249999 0 2.01734e-07 0.249999 0 2.02175e-07 0.249999 0 2.02616e-07 0.249999 0 2.03059e-07 0.249999 0 2.03503e-07 0.249999 0 2.03948e-07 0.249999 0 2.04394e-07 0.249999 0 2.04842e-07 0.249999 0 2.0529e-07 0.249999 0 2.0574e-07 0.249999 0 2.06191e-07 0.249999 0 2.06643e-07 0.249999 0 2.07096e-07 0.249999 0 2.0755e-07 0.249999 0 2.08005e-07 0.249999 0 2.08462e-07 0.249999 0 2.08919e-07 0.249999 0 2.09378e-07 0.249999 0 2.09838e-07 0.249999 0 2.10299e-07 0.249999 0 2.10761e-07 0.249999 0 2.1131e-07 0.249999 0 2.11863e-07 0.249999 0 2.12422e-07 0.249999 0 2.12985e-07 0.249999 0 2.13553e-07 0.249999 0 2.14126e-07 0.249999 0 2.14704e-07 0.249999 0 2.15287e-07 0.249999 0 2.15874e-07 0.249999 0 2.16467e-07 0.249999 0 2.17065e-07 0.249999 0 2.17667e-07 0.249999 0 2.18274e-07 0.249999 0 2.18886e-07 0.249999 0 2.19503e-07 0.249999 0 2.20125e-07 0.249999 0 2.20752e-07 0.25 0 2.21384e-07 0.25 0 2.2202e-07 0.25 0 2.22662e-07 0.25 0 2.23417e-07 0.25 0 2.24182e-07 0.25 0 2.24955e-07 0.25 0 2.25737e-07 0.25 0 2.26529e-07 0.25 0 2.27329e-07 0.25 0 2.28139e-07 0.25 0 2.28958e-07 0.25 0 2.29786e-07 0.25 0 2.30622e-07 0.25 0 2.31468e-07 0.25 0 2.32323e-07 0.25 0 2.33187e-07 0.25 0 2.3406e-07 0.25 0 2.34942e-07 0.25 0 2.35834e-07 0.25 0 2.36734e-07 0.25 0 2.37643e-07 0.25 0 2.38562e-07 0.25 0 2.39489e-07 0.25 0 2.40709e-07 0.25 0 2.41916e-07 0.25 0 2.43109e-07 0.25 0 2.44288e-07 0.25 0 2.45453e-07 0.25 0 2.46605e-07 0.25 0 2.47743e-07 0.25 0 2.48868e-07 0.25 0 2.49978e-07 0.25 0 2.51076e-07 0.25 0 2.52159e-07 0.25 0 2.53229e-07 0.25 0 2.54285e-07 0.25 0 2.55328e-07 0.25 0 2.56357e-07 0.25 0 2.57372e-07 0.25 0 2.58373e-07 0.25 0 2.59361e-07 0.25 0 2.60335e-07 0.25 0 2.61296e-07 0.25 0 2.05423e-07 0.249999 0 2.05928e-07 0.249999 0 2.06423e-07 0.249999 0 2.06911e-07 0.249999 0 2.0739e-07 0.249999 0 2.07862e-07 0.249999 0 2.08325e-07 0.249999 0 2.08779e-07 0.249999 0 2.09226e-07 0.249999 0 2.09664e-07 0.249999 0 2.10094e-07 0.249999 0 2.10516e-07 0.249999 0 2.1093e-07 0.249999 0 2.11335e-07 0.249999 0 2.11732e-07 0.249999 0 2.12121e-07 0.249999 0 2.12502e-07 0.249999 0 2.12874e-07 0.249999 0 2.13239e-07 0.249999 0 2.13595e-07 0.249999 0 2.13942e-07 0.249999 0 2.14385e-07 0.249999 0 2.14828e-07 0.249999 0 2.15272e-07 0.249999 0 2.15715e-07 0.249999 0 2.16159e-07 0.249999 0 2.16603e-07 0.249999 0 2.17048e-07 0.249999 0 2.17492e-07 0.249999 0 2.17937e-07 0.249999 0 2.18381e-07 0.249999 0 2.18826e-07 0.249999 0 2.19272e-07 0.249999 0 2.19717e-07 0.249999 0 2.20163e-07 0.249999 0 2.20609e-07 0.249999 0 2.21055e-07 0.249999 0 2.21501e-07 0.249999 0 2.21948e-07 0.249999 0 2.22395e-07 0.249999 0 2.22842e-07 0.249999 0 2.23373e-07 0.249999 0 2.23909e-07 0.249999 0 2.24449e-07 0.249999 0 2.24993e-07 0.249999 0 2.25542e-07 0.249999 0 2.26096e-07 0.249999 0 2.26653e-07 0.249999 0 2.27215e-07 0.249999 0 2.27782e-07 0.249999 0 2.28352e-07 0.249999 0 2.28927e-07 0.249999 0 2.29507e-07 0.249999 0 2.30091e-07 0.249999 0 2.30679e-07 0.249999 0 2.31272e-07 0.249999 0 2.31869e-07 0.249999 0 2.3247e-07 0.25 0 2.33076e-07 0.25 0 2.33686e-07 0.25 0 2.343e-07 0.25 0 2.35052e-07 0.25 0 2.3581e-07 0.25 0 2.36577e-07 0.25 0 2.3735e-07 0.25 0 2.38132e-07 0.25 0 2.3892e-07 0.25 0 2.39717e-07 0.25 0 2.40521e-07 0.25 0 2.41332e-07 0.25 0 2.42151e-07 0.25 0 2.42978e-07 0.25 0 2.43812e-07 0.25 0 2.44653e-07 0.25 0 2.45503e-07 0.25 0 2.46359e-07 0.25 0 2.47224e-07 0.25 0 2.48095e-07 0.25 0 2.48975e-07 0.25 0 2.49861e-07 0.25 0 2.50756e-07 0.25 0 2.51952e-07 0.25 0 2.53134e-07 0.25 0 2.54303e-07 0.25 0 2.55458e-07 0.25 0 2.566e-07 0.25 0 2.57729e-07 0.25 0 2.58844e-07 0.25 0 2.59946e-07 0.25 0 2.61034e-07 0.25 0 2.62109e-07 0.25 0 2.6317e-07 0.25 0 2.64218e-07 0.25 0 2.65253e-07 0.25 0 2.66274e-07 0.25 0 2.67282e-07 0.25 0 2.68276e-07 0.25 0 2.69257e-07 0.25 0 2.70224e-07 0.25 0 2.71178e-07 0.25 0 2.72119e-07 0.25 0 2.17624e-07 0.249999 0 2.18118e-07 0.249999 0 2.18604e-07 0.249999 0 2.19084e-07 0.249999 0 2.19556e-07 0.249999 0 2.20021e-07 0.249999 0 2.20479e-07 0.249999 0 2.20929e-07 0.249999 0 2.21372e-07 0.249999 0 2.21808e-07 0.249999 0 2.22237e-07 0.249999 0 2.22658e-07 0.249999 0 2.23073e-07 0.249999 0 2.23479e-07 0.249999 0 2.23879e-07 0.249999 0 2.24271e-07 0.249999 0 2.24657e-07 0.249999 0 2.25034e-07 0.249999 0 2.25405e-07 0.249999 0 2.25768e-07 0.249999 0 2.26124e-07 0.249999 0 2.2657e-07 0.249999 0 2.27015e-07 0.249999 0 2.27459e-07 0.249999 0 2.27902e-07 0.249999 0 2.28345e-07 0.249999 0 2.28787e-07 0.249999 0 2.29228e-07 0.249999 0 2.29668e-07 0.249999 0 2.30108e-07 0.249999 0 2.30546e-07 0.249999 0 2.30984e-07 0.249999 0 2.31422e-07 0.249999 0 2.31858e-07 0.249999 0 2.32294e-07 0.249999 0 2.32729e-07 0.249999 0 2.33164e-07 0.249999 0 2.33597e-07 0.249999 0 2.3403e-07 0.249999 0 2.34462e-07 0.249999 0 2.34894e-07 0.249999 0 2.35408e-07 0.249999 0 2.35926e-07 0.249999 0 2.36448e-07 0.249999 0 2.36974e-07 0.249999 0 2.37503e-07 0.249999 0 2.38037e-07 0.249999 0 2.38574e-07 0.249999 0 2.39116e-07 0.249999 0 2.39661e-07 0.249999 0 2.4021e-07 0.249999 0 2.40763e-07 0.249999 0 2.4132e-07 0.249999 0 2.41881e-07 0.249999 0 2.42446e-07 0.249999 0 2.43015e-07 0.249999 0 2.43588e-07 0.249999 0 2.44164e-07 0.25 0 2.44744e-07 0.25 0 2.45329e-07 0.25 0 2.45917e-07 0.25 0 2.46666e-07 0.25 0 2.4742e-07 0.25 0 2.48181e-07 0.25 0 2.48947e-07 0.25 0 2.4972e-07 0.25 0 2.50498e-07 0.25 0 2.51283e-07 0.25 0 2.52073e-07 0.25 0 2.5287e-07 0.25 0 2.53672e-07 0.25 0 2.54481e-07 0.25 0 2.55295e-07 0.25 0 2.56115e-07 0.25 0 2.56942e-07 0.25 0 2.57774e-07 0.25 0 2.58612e-07 0.25 0 2.59457e-07 0.25 0 2.60307e-07 0.25 0 2.61163e-07 0.25 0 2.62026e-07 0.25 0 2.63195e-07 0.25 0 2.64351e-07 0.25 0 2.65495e-07 0.25 0 2.66625e-07 0.25 0 2.67743e-07 0.25 0 2.68848e-07 0.25 0 2.6994e-07 0.25 0 2.71019e-07 0.25 0 2.72086e-07 0.25 0 2