<?xml version="1.0"?> 
<VTKFile type="StructuredGrid" version="0.1"> 
<StructuredGrid WholeExtent="0 100 0 100 0 0"> 
<Piece Extent="0 100 0 100 0 0"> 
<PointData Vectors="Mechanisum">
<DataArray type="Float32" Name="Mechanisum" format="ascii" NumberOfComponents="3"> 
1.44169e-07 0.25 0 1.4565e-07 0.25 0 1.47137e-07 0.25 0 1.4863e-07 0.25 0 1.50128e-07 0.25 0 1.51631e-07 0.25 0 1.5314e-07 0.25 0 1.54655e-07 0.25 0 1.56175e-07 0.25 0 1.57701e-07 0.25 0 1.59233e-07 0.25 0 1.6077e-07 0.25 0 1.62312e-07 0.25 0 1.6386e-07 0.25 0 1.65414e-07 0.25 0 1.66973e-07 0.25 0 1.68538e-07 0.25 0 1.70109e-07 0.25 0 1.71685e-07 0.25 0 1.73266e-07 0.25 0 1.74854e-07 0.25 0 1.76086e-07 0.25 0 1.773e-07 0.25 0 1.78494e-07 0.25 0 1.79669e-07 0.25 0 1.80824e-07 0.25 0 1.81961e-07 0.25 0 1.83078e-07 0.25 0 1.84176e-07 0.25 0 1.85255e-07 0.25 0 1.86314e-07 0.25 0 1.87355e-07 0.25 0 1.88376e-07 0.25 0 1.89378e-07 0.25 0 1.90361e-07 0.25 0 1.91324e-07 0.25 0 1.92268e-07 0.25 0 1.93193e-07 0.25 0 1.94099e-07 0.25 0 1.94985e-07 0.25 0 1.95853e-07 0.25 0 1.96745e-07 0.25 0 1.97627e-07 0.25 0 1.98499e-07 0.25 0 1.9936e-07 0.25 0 2.00212e-07 0.25 0 2.01053e-07 0.25 0 2.01883e-07 0.25 0 2.02704e-07 0.25 0 2.03514e-07 0.25 0 2.04314e-07 0.25 0 2.05104e-07 0.25 0 2.05884e-07 0.250001 0 2.06653e-07 0.250001 0 2.07412e-07 0.250001 0 2.08161e-07 0.250001 0 2.08899e-07 0.250001 0 2.09628e-07 0.250001 0 2.10346e-07 0.250001 0 2.11054e-07 0.250001 0 2.11751e-07 0.250001 0 2.12365e-07 0.250001 0 2.12967e-07 0.250001 0 2.13558e-07 0.250001 0 2.14139e-07 0.250001 0 2.14708e-07 0.250001 0 2.15266e-07 0.250001 0 2.15813e-07 0.250001 0 2.16349e-07 0.250001 0 2.16874e-07 0.250001 0 2.17388e-07 0.250001 0 2.17891e-07 0.250001 0 2.18382e-07 0.250001 0 2.18863e-07 0.250001 0 2.19332e-07 0.250001 0 2.19791e-07 0.250001 0 2.20238e-07 0.250001 0 2.20675e-07 0.250001 0 2.211e-07 0.250001 0 2.21514e-07 0.250001 0 2.21917e-07 0.250001 0 2.2242e-07 0.250001 0 2.22924e-07 0.250001 0 2.23429e-07 0.250001 0 2.23936e-07 0.250001 0 2.24444e-07 0.250001 0 2.24953e-07 0.250001 0 2.25463e-07 0.250001 0 2.25975e-07 0.250001 0 2.26488e-07 0.250001 0 2.27002e-07 0.250001 0 2.27518e-07 0.250001 0 2.28034e-07 0.250001 0 2.28553e-07 0.250001 0 2.29072e-07 0.250001 0 2.29593e-07 0.250001 0 2.30114e-07 0.250001 0 2.30638e-07 0.250001 0 2.31162e-07 0.250001 0 2.31688e-07 0.250001 0 2.32215e-07 0.250001 0 1.54671e-07 0.25 0 1.56185e-07 0.25 0 1.57698e-07 0.25 0 1.59211e-07 0.25 0 1.60724e-07 0.25 0 1.62237e-07 0.25 0 1.63749e-07 0.25 0 1.65261e-07 0.25 0 1.66773e-07 0.25 0 1.68285e-07 0.25 0 1.69796e-07 0.25 0 1.71307e-07 0.25 0 1.72818e-07 0.25 0 1.74328e-07 0.25 0 1.75838e-07 0.25 0 1.77348e-07 0.25 0 1.78858e-07 0.25 0 1.80367e-07 0.25 0 1.81876e-07 0.25 0 1.83385e-07 0.25 0 1.84894e-07 0.25 0 1.86117e-07 0.25 0 1.8732e-07 0.25 0 1.88503e-07 0.25 0 1.89665e-07 0.25 0 1.90807e-07 0.25 0 1.91929e-07 0.25 0 1.93031e-07 0.25 0 1.94112e-07 0.25 0 1.95173e-07 0.25 0 1.96214e-07 0.25 0 1.97234e-07 0.25 0 1.98234e-07 0.25 0 1.99214e-07 0.25 0 2.00173e-07 0.25 0 2.01112e-07 0.25 0 2.02031e-07 0.25 0 2.0293e-07 0.25 0 2.03808e-07 0.25 0 2.04666e-07 0.25 0 2.05504e-07 0.25 0 2.06398e-07 0.25 0 2.0728e-07 0.25 0 2.08149e-07 0.25 0 2.09006e-07 0.25 0 2.0985e-07 0.25 0 2.10682e-07 0.25 0 2.11501e-07 0.25 0 2.12308e-07 0.25 0 2.13103e-07 0.25 0 2.13885e-07 0.25 0 2.14655e-07 0.25 0 2.15412e-07 0.250001 0 2.16157e-07 0.250001 0 2.16889e-07 0.250001 0 2.17609e-07 0.250001 0 2.18316e-07 0.250001 0 2.19011e-07 0.250001 0 2.19694e-07 0.250001 0 2.20364e-07 0.250001 0 2.21022e-07 0.250001 0 2.21613e-07 0.250001 0 2.22194e-07 0.250001 0 2.22765e-07 0.250001 0 2.23324e-07 0.250001 0 2.23873e-07 0.250001 0 2.24411e-07 0.250001 0 2.24938e-07 0.250001 0 2.25455e-07 0.250001 0 2.25961e-07 0.250001 0 2.26456e-07 0.250001 0 2.26941e-07 0.250001 0 2.27414e-07 0.250001 0 2.27877e-07 0.250001 0 2.2833e-07 0.250001 0 2.28771e-07 0.250001 0 2.29202e-07 0.250001 0 2.29622e-07 0.250001 0 2.30032e-07 0.250001 0 2.3043e-07 0.250001 0 2.30818e-07 0.250001 0 2.31305e-07 0.250001 0 2.31795e-07 0.250001 0 2.32287e-07 0.250001 0 2.32781e-07 0.250001 0 2.33278e-07 0.250001 0 2.33778e-07 0.250001 0 2.34279e-07 0.250001 0 2.34783e-07 0.250001 0 2.3529e-07 0.250001 0 2.35799e-07 0.250001 0 2.36311e-07 0.250001 0 2.36824e-07 0.250001 0 2.37341e-07 0.250001 0 2.3786e-07 0.250001 0 2.38381e-07 0.250001 0 2.38904e-07 0.250001 0 2.3943e-07 0.250001 0 2.39959e-07 0.250001 0 2.4049e-07 0.250001 0 2.41023e-07 0.250001 0 1.65202e-07 0.25 0 1.66742e-07 0.25 0 1.68276e-07 0.25 0 1.69805e-07 0.25 0 1.71328e-07 0.25 0 1.72846e-07 0.25 0 1.74359e-07 0.25 0 1.75865e-07 0.25 0 1.77366e-07 0.25 0 1.78862e-07 0.25 0 1.80352e-07 0.25 0 1.81837e-07 0.25 0 1.83316e-07 0.25 0 1.84789e-07 0.25 0 1.86257e-07 0.25 0 1.8772e-07 0.25 0 1.89177e-07 0.25 0 1.90628e-07 0.25 0 1.92074e-07 0.25 0 1.93515e-07 0.25 0 1.94949e-07 0.25 0 1.96162e-07 0.25 0 1.97353e-07 0.25 0 1.98523e-07 0.25 0 1.99672e-07 0.25 0 2.008e-07 0.25 0 2.01906e-07 0.25 0 2.02991e-07 0.25 0 2.04055e-07 0.25 0 2.05098e-07 0.25 0 2.0612e-07 0.25 0 2.0712e-07 0.25 0 2.08099e-07 0.25 0 2.09057e-07 0.25 0 2.09994e-07 0.25 0 2.1091e-07 0.25 0 2.11804e-07 0.25 0 2.12677e-07 0.25 0 2.13529e-07 0.25 0 2.1436e-07 0.25 0 2.15169e-07 0.25 0 2.16063e-07 0.25 0 2.16942e-07 0.25 0 2.17806e-07 0.25 0 2.18656e-07 0.25 0 2.19492e-07 0.25 0 2.20314e-07 0.25 0 2.21121e-07 0.25 0 2.21913e-07 0.25 0 2.22692e-07 0.25 0 2.23456e-07 0.25 0 2.24205e-07 0.25 0 2.2494e-07 0.250001 0 2.25661e-07 0.250001 0 2.26367e-07 0.250001 0 2.27059e-07 0.250001 0 2.27737e-07 0.250001 0 2.284e-07 0.250001 0 2.29049e-07 0.250001 0 2.29683e-07 0.250001 0 2.30304e-07 0.250001 0 2.30875e-07 0.250001 0 2.31437e-07 0.250001 0 2.31988e-07 0.250001 0 2.32528e-07 0.250001 0 2.33058e-07 0.250001 0 2.33578e-07 0.250001 0 2.34087e-07 0.250001 0 2.34586e-07 0.250001 0 2.35075e-07 0.250001 0 2.35552e-07 0.250001 0 2.3602e-07 0.250001 0 2.36477e-07 0.250001 0 2.36924e-07 0.250001 0 2.3736e-07 0.250001 0 2.37786e-07 0.250001 0 2.38201e-07 0.250001 0 2.38606e-07 0.250001 0 2.39001e-07 0.250001 0 2.39385e-07 0.250001 0 2.39758e-07 0.250001 0 2.40231e-07 0.250001 0 2.40707e-07 0.250001 0 2.41187e-07 0.250001 0 2.4167e-07 0.250001 0 2.42156e-07 0.250001 0 2.42646e-07 0.250001 0 2.4314e-07 0.250001 0 2.43637e-07 0.250001 0 2.44138e-07 0.250001 0 2.44642e-07 0.250001 0 2.45149e-07 0.250001 0 2.4566e-07 0.250001 0 2.46175e-07 0.250001 0 2.46693e-07 0.250001 0 2.47214e-07 0.250001 0 2.47739e-07 0.250001 0 2.48267e-07 0.250001 0 2.48799e-07 0.250001 0 2.49335e-07 0.250001 0 2.49874e-07 0.250001 0 1.75762e-07 0.25 0 1.77322e-07 0.25 0 1.78872e-07 0.25 0 1.80411e-07 0.25 0 1.81941e-07 0.25 0 1.8346e-07 0.25 0 1.84968e-07 0.25 0 1.86467e-07 0.25 0 1.87955e-07 0.25 0 1.89434e-07 0.25 0 1.90902e-07 0.25 0 1.9236e-07 0.25 0 1.93807e-07 0.25 0 1.95245e-07 0.25 0 1.96672e-07 0.25 0 1.98089e-07 0.25 0 1.99496e-07 0.25 0 2.00892e-07 0.25 0 2.02279e-07 0.25 0 2.03655e-07 0.25 0 2.05021e-07 0.25 0 2.06221e-07 0.25 0 2.07399e-07 0.25 0 2.08555e-07 0.25 0 2.09689e-07 0.25 0 2.10801e-07 0.25 0 2.11892e-07 0.25 0 2.1296e-07 0.25 0 2.14006e-07 0.25 0 2.1503e-07 0.25 0 2.16033e-07 0.25 0 2.17013e-07 0.25 0 2.17972e-07 0.25 0 2.18908e-07 0.25 0 2.19823e-07 0.25 0 2.20715e-07 0.25 0 2.21586e-07 0.25 0 2.22435e-07 0.25 0 2.23261e-07 0.25 0 2.24066e-07 0.25 0 2.24849e-07 0.25 0 2.25739e-07 0.25 0 2.26613e-07 0.25 0 2.27471e-07 0.25 0 2.28313e-07 0.25 0 2.29139e-07 0.25 0 2.29948e-07 0.25 0 2.30742e-07 0.25 0 2.3152e-07 0.25 0 2.32281e-07 0.25 0 2.33026e-07 0.25 0 2.33756e-07 0.250001 0 2.34469e-07 0.250001 0 2.35166e-07 0.250001 0 2.35847e-07 0.250001 0 2.36512e-07 0.250001 0 2.37161e-07 0.250001 0 2.37794e-07 0.250001 0 2.38411e-07 0.250001 0 2.39012e-07 0.250001 0 2.39597e-07 0.250001 0 2.4015e-07 0.250001 0 2.40694e-07 0.250001 0 2.41228e-07 0.250001 0 2.41751e-07 0.250001 0 2.42264e-07 0.250001 0 2.42767e-07 0.250001 0 2.4326e-07 0.250001 0 2.43742e-07 0.250001 0 2.44215e-07 0.250001 0 2.44677e-07 0.250001 0 2.45129e-07 0.250001 0 2.45571e-07 0.250001 0 2.46002e-07 0.250001 0 2.46424e-07 0.250001 0 2.46835e-07 0.250001 0 2.47236e-07 0.250001 0 2.47627e-07 0.250001 0 2.48007e-07 0.250001 0 2.48378e-07 0.250001 0 2.48738e-07 0.250001 0 2.49197e-07 0.250001 0 2.49661e-07 0.250001 0 2.50129e-07 0.250001 0 2.50601e-07 0.250001 0 2.51078e-07 0.250001 0 2.51559e-07 0.250001 0 2.52045e-07 0.250001 0 2.52536e-07 0.250001 0 2.5303e-07 0.250001 0 2.53529e-07 0.250001 0 2.54033e-07 0.250001 0 2.54541e-07 0.250001 0 2.55054e-07 0.250001 0 2.55571e-07 0.250001 0 2.56092e-07 0.250001 0 2.56618e-07 0.250001 0 2.57149e-07 0.250001 0 2.57684e-07 0.250001 0 2.58223e-07 0.250001 0 2.58767e-07 0.250001 0 1.86352e-07 0.25 0 1.87925e-07 0.25 0 1.89485e-07 0.25 0 1.9103e-07 0.25 0 1.9256e-07 0.25 0 1.94077e-07 0.25 0 1.95579e-07 0.25 0 1.97067e-07 0.25 0 1.9854e-07 0.25 0 1.99999e-07 0.25 0 2.01444e-07 0.25 0 2.02875e-07 0.25 0 2.04291e-07 0.25 0 2.05693e-07 0.25 0 2.07081e-07 0.25 0 2.08455e-07 0.25 0 2.09814e-07 0.25 0 2.11159e-07 0.25 0 2.12489e-07 0.25 0 2.13806e-07 0.25 0 2.15108e-07 0.25 0 2.16294e-07 0.25 0 2.17457e-07 0.25 0 2.18598e-07 0.25 0 2.19717e-07 0.25 0 2.20812e-07 0.25 0 2.21886e-07 0.25 0 2.22936e-07 0.25 0 2.23964e-07 0.25 0 2.2497e-07 0.25 0 2.25953e-07 0.25 0 2.26913e-07 0.25 0 2.27851e-07 0.25 0 2.28767e-07 0.25 0 2.29659e-07 0.25 0 2.3053e-07 0.25 0 2.31377e-07 0.25 0 2.32202e-07 0.25 0 2.33005e-07 0.25 0 2.33785e-07 0.25 0 2.34542e-07 0.25 0 2.35427e-07 0.25 0 2.36294e-07 0.25 0 2.37143e-07 0.25 0 2.37975e-07 0.25 0 2.38789e-07 0.25 0 2.39586e-07 0.25 0 2.40365e-07 0.25 0 2.41127e-07 0.25 0 2.41871e-07 0.25 0 2.42597e-07 0.25 0 2.43307e-07 0.250001 0 2.43998e-07 0.250001 0 2.44672e-07 0.250001 0 2.45329e-07 0.250001 0 2.45968e-07 0.250001 0 2.4659e-07 0.250001 0 2.47194e-07 0.250001 0 2.4778e-07 0.250001 0 2.48349e-07 0.250001 0 2.48901e-07 0.250001 0 2.49439e-07 0.250001 0 2.49967e-07 0.250001 0 2.50484e-07 0.250001 0 2.50992e-07 0.250001 0 2.5149e-07 0.250001 0 2.51978e-07 0.250001 0 2.52456e-07 0.250001 0 2.52924e-07 0.250001 0 2.53382e-07 0.250001 0 2.53829e-07 0.250001 0 2.54267e-07 0.250001 0 2.54695e-07 0.250001 0 2.55113e-07 0.250001 0 2.55521e-07 0.250001 0 2.55918e-07 0.250001 0 2.56306e-07 0.250001 0 2.56684e-07 0.250001 0 2.57052e-07 0.250001 0 2.5741e-07 0.250001 0 2.57758e-07 0.250001 0 2.58204e-07 0.250001 0 2.58656e-07 0.250001 0 2.59113e-07 0.250001 0 2.59576e-07 0.250001 0 2.60043e-07 0.250001 0 2.60517e-07 0.250001 0 2.60995e-07 0.250001 0 2.61479e-07 0.250001 0 2.61968e-07 0.250001 0 2.62463e-07 0.250001 0 2.62963e-07 0.250001 0 2.63468e-07 0.250001 0 2.63979e-07 0.250001 0 2.64495e-07 0.250001 0 2.65016e-07 0.250001 0 2.65543e-07 0.250001 0 2.66075e-07 0.250001 0 2.66612e-07 0.250001 0 2.67155e-07 0.250001 0 2.67703e-07 0.250001 0 1.96971e-07 0.25 0 1.98552e-07 0.25 0 2.00115e-07 0.25 0 2.0166e-07 0.25 0 2.03188e-07 0.25 0 2.04698e-07 0.25 0 2.0619e-07 0.25 0 2.07664e-07 0.25 0 2.09121e-07 0.25 0 2.10559e-07 0.25 0 2.1198e-07 0.25 0 2.13383e-07 0.25 0 2.14769e-07 0.25 0 2.16136e-07 0.25 0 2.17486e-07 0.25 0 2.18818e-07 0.25 0 2.20132e-07 0.25 0 2.21428e-07 0.25 0 2.22707e-07 0.25 0 2.23967e-07 0.25 0 2.2521e-07 0.25 0 2.26381e-07 0.25 0 2.27528e-07 0.25 0 2.28653e-07 0.25 0 2.29754e-07 0.25 0 2.30833e-07 0.25 0 2.31888e-07 0.25 0 2.32921e-07 0.25 0 2.3393e-07 0.25 0 2.34917e-07 0.25 0 2.3588e-07 0.25 0 2.36821e-07 0.25 0 2.37738e-07 0.25 0 2.38633e-07 0.25 0 2.39504e-07 0.25 0 2.40353e-07 0.25 0 2.41178e-07 0.25 0 2.41981e-07 0.25 0 2.4276e-07 0.25 0 2.43517e-07 0.25 0 2.4425e-07 0.25 0 2.45126e-07 0.25 0 2.45983e-07 0.25 0 2.46822e-07 0.25 0 2.47642e-07 0.25 0 2.48443e-07 0.25 0 2.49226e-07 0.25 0 2.49989e-07 0.25 0 2.50734e-07 0.25 0 2.51461e-07 0.25 0 2.52168e-07 0.25 0 2.52857e-07 0.250001 0 2.53528e-07 0.250001 0 2.54179e-07 0.250001 0 2.54812e-07 0.250001 0 2.55426e-07 0.250001 0 2.56022e-07 0.250001 0 2.56599e-07 0.250001 0 2.57157e-07 0.250001 0 2.57696e-07 0.250001 0 2.58217e-07 0.250001 0 2.5874e-07 0.250001 0 2.59254e-07 0.250001 0 2.59758e-07 0.250001 0 2.60252e-07 0.250001 0 2.60737e-07 0.250001 0 2.61211e-07 0.250001 0 2.61675e-07 0.250001 0 2.6213e-07 0.250001 0 2.62575e-07 0.250001 0 2.6301e-07 0.250001 0 2.63435e-07 0.250001 0 2.6385e-07 0.250001 0 2.64255e-07 0.250001 0 2.64651e-07 0.250001 0 2.65037e-07 0.250001 0 2.65412e-07 0.250001 0 2.65778e-07 0.250001 0 2.66134e-07 0.250001 0 2.6648e-07 0.250001 0 2.66817e-07 0.250001 0 2.67251e-07 0.250001 0 2.67692e-07 0.250001 0 2.6814e-07 0.250001 0 2.68593e-07 0.250001 0 2.69052e-07 0.250001 0 2.69518e-07 0.250001 0 2.6999e-07 0.250001 0 2.70467e-07 0.250001 0 2.70951e-07 0.250001 0 2.71442e-07 0.250001 0 2.71938e-07 0.250001 0 2.7244e-07 0.250001 0 2.72949e-07 0.250001 0 2.73464e-07 0.250001 0 2.73985e-07 0.250001 0 2.74512e-07 0.250001 0 2.75045e-07 0.250001 0 2.75584e-07 0.250001 0 2.7613e-07 0.250001 0 2.76682e-07 0.250001 0 2.07618e-07 0.25 0 2.09201e-07 0.25 0 2.10762e-07 0.25 0 2.12303e-07 0.25 0 2.13823e-07 0.25 0 2.15323e-07 0.25 0 2.16801e-07 0.25 0 2.18259e-07 0.25 0 2.19697e-07 0.25 0 2.21113e-07 0.25 0 2.22509e-07 0.25 0 2.23884e-07 0.25 0 2.25239e-07 0.25 0 2.26573e-07 0.25 0 2.27886e-07 0.25 0 2.29178e-07 0.25 0 2.30449e-07 0.25 0 2.317e-07 0.25 0 2.32931e-07 0.25 0 2.3414e-07 0.25 0 2.35329e-07 0.25 0 2.36482e-07 0.25 0 2.37612e-07 0.25 0 2.38719e-07 0.25 0 2.39802e-07 0.25 0 2.40863e-07 0.25 0 2.419e-07 0.25 0 2.42913e-07 0.25 0 2.43904e-07 0.25 0 2.44871e-07 0.25 0 2.45814e-07 0.25 0 2.46735e-07 0.25 0 2.47632e-07 0.25 0 2.48506e-07 0.25 0 2.49357e-07 0.25 0 2.50184e-07 0.25 0 2.50988e-07 0.25 0 2.51769e-07 0.25 0 2.52527e-07 0.25 0 2.53261e-07 0.25 0 2.53972e-07 0.25 0 2.54837e-07 0.25 0 2.55683e-07 0.25 0 2.56509e-07 0.25 0 2.57315e-07 0.25 0 2.58101e-07 0.25 0 2.58868e-07 0.25 0 2.59616e-07 0.25 0 2.60343e-07 0.25 0 2.61051e-07 0.25 0 2.6174e-07 0.25 0 2.62408e-07 0.250001 0 2.63058e-07 0.250001 0 2.63687e-07 0.250001 0 2.64297e-07 0.250001 0 2.64887e-07 0.250001 0 2.65458e-07 0.250001 0 2.66009e-07 0.250001 0 2.6654e-07 0.250001 0 2.67052e-07 0.250001 0 2.67544e-07 0.250001 0 2.68055e-07 0.250001 0 2.68557e-07 0.250001 0 2.69049e-07 0.250001 0 2.69531e-07 0.250001 0 2.70003e-07 0.250001 0 2.70466e-07 0.250001 0 2.70919e-07 0.250001 0 2.71362e-07 0.250001 0 2.71795e-07 0.250001 0 2.72218e-07 0.250001 0 2.72632e-07 0.250001 0 2.73036e-07 0.250001 0 2.7343e-07 0.250001 0 2.73814e-07 0.250001 0 2.74189e-07 0.250001 0 2.74554e-07 0.250001 0 2.74909e-07 0.250001 0 2.75254e-07 0.250001 0 2.75589e-07 0.250001 0 2.75915e-07 0.250001 0 2.76339e-07 0.250001 0 2.7677e-07 0.250001 0 2.77208e-07 0.250001 0 2.77653e-07 0.250001 0 2.78105e-07 0.250001 0 2.78563e-07 0.250001 0 2.79029e-07 0.250001 0 2.79501e-07 0.250001 0 2.7998e-07 0.250001 0 2.80466e-07 0.250001 0 2.80959e-07 0.250001 0 2.81459e-07 0.250001 0 2.81965e-07 0.250001 0 2.82478e-07 0.250001 0 2.82999e-07 0.250001 0 2.83526e-07 0.250001 0 2.8406e-07 0.250001 0 2.84601e-07 0.250001 0 2.85148e-07 0.250001 0 2.85703e-07 0.250001 0 2.18295e-07 0.25 0 2.19873e-07 0.25 0 2.21427e-07 0.25 0 2.22958e-07 0.25 0 2.24466e-07 0.25 0 2.25952e-07 0.25 0 2.27414e-07 0.25 0 2.28853e-07 0.25 0 2.30269e-07 0.25 0 2.31662e-07 0.25 0 2.33031e-07 0.25 0 2.34378e-07 0.25 0 2.35702e-07 0.25 0 2.37003e-07 0.25 0 2.3828e-07 0.25 0 2.39535e-07 0.25 0 2.40767e-07 0.25 0 2.41975e-07 0.25 0 2.43161e-07 0.25 0 2.44323e-07 0.25 0 2.45463e-07 0.25 0 2.46597e-07 0.25 0 2.47709e-07 0.25 0 2.48796e-07 0.25 0 2.49861e-07 0.25 0 2.50902e-07 0.25 0 2.51919e-07 0.25 0 2.52914e-07 0.25 0 2.53884e-07 0.25 0 2.54832e-07 0.25 0 2.55756e-07 0.25 0 2.56656e-07 0.25 0 2.57534e-07 0.25 0 2.58387e-07 0.25 0 2.59218e-07 0.25 0 2.60025e-07 0.25 0 2.60808e-07 0.25 0 2.61568e-07 0.25 0 2.62305e-07 0.25 0 2.63018e-07 0.25 0 2.63708e-07 0.25 0 2.6456e-07 0.25 0 2.65391e-07 0.25 0 2.66202e-07 0.25 0 2.66993e-07 0.25 0 2.67764e-07 0.25 0 2.68514e-07 0.25 0 2.69243e-07 0.25 0 2.69953e-07 0.25 0 2.70642e-07 0.25 0 2.71311e-07 0.25 0 2.71959e-07 0.250001 0 2.72588e-07 0.250001 0 2.73196e-07 0.250001 0 2.73783e-07 0.250001 0 2.7435e-07 0.250001 0 2.74897e-07 0.250001 0 2.75424e-07 0.250001 0 2.7593e-07 0.250001 0 2.76416e-07 0.250001 0 2.76882e-07 0.250001 0 2.77383e-07 0.250001 0 2.77874e-07 0.250001 0 2.78356e-07 0.250001 0 2.78828e-07 0.250001 0 2.7929e-07 0.250001 0 2.79743e-07 0.250001 0 2.80186e-07 0.250001 0 2.80618e-07 0.250001 0 2.81042e-07 0.250001 0 2.81455e-07 0.250001 0 2.81859e-07 0.250001 0 2.82253e-07 0.250001 0 2.82637e-07 0.250001 0 2.83011e-07 0.250001 0 2.83376e-07 0.250001 0 2.83731e-07 0.250001 0 2.84076e-07 0.250001 0 2.84411e-07 0.250001 0 2.84737e-07 0.250001 0 2.85053e-07 0.250001 0 2.85468e-07 0.250001 0 2.8589e-07 0.250001 0 2.86319e-07 0.250001 0 2.86756e-07 0.250001 0 2.87201e-07 0.250001 0 2.87653e-07 0.250001 0 2.88112e-07 0.250001 0 2.88579e-07 0.250001 0 2.89054e-07 0.250001 0 2.89536e-07 0.250001 0 2.90025e-07 0.250001 0 2.90522e-07 0.250001 0 2.91027e-07 0.250001 0 2.91538e-07 0.250001 0 2.92058e-07 0.250001 0 2.92585e-07 0.250001 0 2.93119e-07 0.250001 0 2.93661e-07 0.250001 0 2.9421e-07 0.250001 0 2.94767e-07 0.250001 0 2.29002e-07 0.25 0 2.30568e-07 0.25 0 2.32109e-07 0.25 0 2.33626e-07 0.25 0 2.35117e-07 0.25 0 2.36584e-07 0.25 0 2.38026e-07 0.25 0 2.39444e-07 0.25 0 2.40836e-07 0.25 0 2.42204e-07 0.25 0 2.43547e-07 0.25 0 2.44865e-07 0.25 0 2.46158e-07 0.25 0 2.47427e-07 0.25 0 2.48671e-07 0.25 0 2.49889e-07 0.25 0 2.51084e-07 0.25 0 2.52253e-07 0.25 0 2.53398e-07 0.25 0 2.54517e-07 0.25 0 2.55612e-07 0.25 0 2.56727e-07 0.25 0 2.57818e-07 0.25 0 2.58885e-07 0.25 0 2.5993e-07 0.25 0 2.6095e-07 0.25 0 2.61948e-07 0.25 0 2.62922e-07 0.25 0 2.63873e-07 0.25 0 2.648e-07 0.25 0 2.65704e-07 0.25 0 2.66585e-07 0.25 0 2.67442e-07 0.25 0 2.68276e-07 0.25 0 2.69086e-07 0.25 0 2.69874e-07 0.25 0 2.70637e-07 0.25 0 2.71378e-07 0.25 0 2.72095e-07 0.25 0 2.72788e-07 0.25 0 2.73459e-07 0.25 0 2.74294e-07 0.25 0 2.75109e-07 0.25 0 2.75904e-07 0.25 0 2.76677e-07 0.25 0 2.7743e-07 0.25 0 2.78162e-07 0.25 0 2.78873e-07 0.25 0 2.79564e-07 0.25 0 2.80233e-07 0.25 0 2.80882e-07 0.25 0 2.81511e-07 0.250001 0 2.82118e-07 0.250001 0 2.82705e-07 0.250001 0 2.83271e-07 0.250001 0 2.83816e-07 0.250001 0 2.84341e-07 0.250001 0 2.84844e-07 0.250001 0 2.85327e-07 0.250001 0 2.8579e-07 0.250001 0 2.86231e-07 0.250001 0 2.86724e-07 0.250001 0 2.87207e-07 0.250001 0 2.87681e-07 0.250001 0 2.88144e-07 0.250001 0 2.88598e-07 0.250001 0 2.89042e-07 0.250001 0 2.89476e-07 0.250001 0 2.899e-07 0.250001 0 2.90315e-07 0.250001 0 2.9072e-07 0.250001 0 2.91115e-07 0.250001 0 2.915e-07 0.250001 0 2.91876e-07 0.250001 0 2.92241e-07 0.250001 0 2.92597e-07 0.250001 0 2.92944e-07 0.250001 0 2.9328e-07 0.250001 0 2.93607e-07 0.250001 0 2.93923e-07 0.250001 0 2.9423e-07 0.250001 0 2.94636e-07 0.250001 0 2.9505e-07 0.250001 0 2.95472e-07 0.250001 0 2.95902e-07 0.250001 0 2.9634e-07 0.250001 0 2.96787e-07 0.250001 0 2.97241e-07 0.250001 0 2.97703e-07 0.250001 0 2.98173e-07 0.250001 0 2.98651e-07 0.250001 0 2.99137e-07 0.250001 0 2.99631e-07 0.250001 0 3.00134e-07 0.250001 0 3.00644e-07 0.250001 0 3.01162e-07 0.250001 0 3.01688e-07 0.250001 0 3.02223e-07 0.250001 0 3.02765e-07 0.250001 0 3.03316e-07 0.250001 0 3.03874e-07 0.250001 0 2.39737e-07 0.25 0 2.41286e-07 0.25 0 2.42808e-07 0.25 0 2.44305e-07 0.25 0 2.45776e-07 0.25 0 2.47221e-07 0.25 0 2.4864e-07 0.25 0 2.50032e-07 0.25 0 2.51399e-07 0.25 0 2.5274e-07 0.25 0 2.54055e-07 0.25 0 2.55344e-07 0.25 0 2.56607e-07 0.25 0 2.57845e-07 0.25 0 2.59056e-07 0.25 0 2.60241e-07 0.25 0 2.614e-07 0.25 0 2.62533e-07 0.25 0 2.63641e-07 0.25 0 2.64722e-07 0.25 0 2.65778e-07 0.25 0 2.6687e-07 0.25 0 2.67939e-07 0.25 0 2.68986e-07 0.25 0 2.70009e-07 0.25 0 2.71008e-07 0.25 0 2.71985e-07 0.25 0 2.72938e-07 0.25 0 2.73869e-07 0.25 0 2.74776e-07 0.25 0 2.7566e-07 0.25 0 2.7652e-07 0.25 0 2.77358e-07 0.25 0 2.78172e-07 0.25 0 2.78963e-07 0.25 0 2.79731e-07 0.25 0 2.80476e-07 0.25 0 2.81198e-07 0.25 0 2.81896e-07 0.25 0 2.82571e-07 0.25 0 2.83223e-07 0.25 0 2.8404e-07 0.25 0 2.84837e-07 0.25 0 2.85612e-07 0.25 0 2.86367e-07 0.25 0 2.871e-07 0.25 0 2.87813e-07 0.25 0 2.88504e-07 0.25 0 2.89175e-07 0.25 0 2.89825e-07 0.25 0 2.90454e-07 0.25 0 2.91062e-07 0.250001 0 2.91649e-07 0.250001 0 2.92215e-07 0.250001 0 2.9276e-07 0.250001 0 2.93284e-07 0.250001 0 2.93788e-07 0.250001 0 2.9427e-07 0.250001 0 2.94732e-07 0.250001 0 2.95172e-07 0.250001 0 2.95592e-07 0.250001 0 2.96078e-07 0.250001 0 2.96555e-07 0.250001 0 2.97022e-07 0.250001 0 2.97479e-07 0.250001 0 2.97926e-07 0.250001 0 2.98363e-07 0.250001 0 2.9879e-07 0.250001 0 2.99207e-07 0.250001 0 2.99615e-07 0.250001 0 3.00013e-07 0.250001 0 3.004e-07 0.250001 0 3.00778e-07 0.250001 0 3.01147e-07 0.250001 0 3.01505e-07 0.250001 0 3.01853e-07 0.250001 0 3.02192e-07 0.250001 0 3.0252e-07 0.250001 0 3.02839e-07 0.250001 0 3.03148e-07 0.250001 0 3.03447e-07 0.250001 0 3.03846e-07 0.250001 0 3.04253e-07 0.250001 0 3.04668e-07 0.250001 0 3.05091e-07 0.250001 0 3.05524e-07 0.250001 0 3.05964e-07 0.250001 0 3.06413e-07 0.250001 0 3.06871e-07 0.250001 0 3.07337e-07 0.250001 0 3.07812e-07 0.250001 0 3.08295e-07 0.250001 0 3.08786e-07 0.250001 0 3.09286e-07 0.250001 0 3.09795e-07 0.250001 0 3.10312e-07 0.250001 0 3.10837e-07 0.250001 0 3.11371e-07 0.250001 0 3.11913e-07 0.250001 0 3.12464e-07 0.250001 0 3.13023e-07 0.250001 0 2.50502e-07 0.25 0 2.52027e-07 0.25 0 2.53525e-07 0.25 0 2.54997e-07 0.25 0 2.56442e-07 0.25 0 2.57861e-07 0.25 0 2.59253e-07 0.25 0 2.60619e-07 0.25 0 2.61958e-07 0.25 0 2.63271e-07 0.25 0 2.64557e-07 0.25 0 2.65816e-07 0.25 0 2.6705e-07 0.25 0 2.68256e-07 0.25 0 2.69436e-07 0.25 0 2.70589e-07 0.25 0 2.71716e-07 0.25 0 2.72817e-07 0.25 0 2.73891e-07 0.25 0 2.74938e-07 0.25 0 2.75959e-07 0.25 0 2.77028e-07 0.25 0 2.78074e-07 0.25 0 2.79097e-07 0.25 0 2.80098e-07 0.25 0 2.81076e-07 0.25 0 2.82031e-07 0.25 0 2.82963e-07 0.25 0 2.83872e-07 0.25 0 2.84758e-07 0.25 0 2.85622e-07 0.25 0 2.86463e-07 0.25 0 2.87281e-07 0.25 0 2.88076e-07 0.25 0 2.88848e-07 0.25 0 2.89597e-07 0.25 0 2.90324e-07 0.25 0 2.91028e-07 0.25 0 2.91709e-07 0.25 0 2.92367e-07 0.25 0 2.93002e-07 0.25 0 2.93798e-07 0.25 0 2.94573e-07 0.25 0 2.95328e-07 0.25 0 2.96062e-07 0.25 0 2.96774e-07 0.25 0 2.97466e-07 0.25 0 2.98137e-07 0.25 0 2.98788e-07 0.25 0 2.99417e-07 0.25 0 3.00025e-07 0.25 0 3.00613e-07 0.250001 0 3.0118e-07 0.250001 0 3.01726e-07 0.250001 0 3.02251e-07 0.250001 0 3.02755e-07 0.250001 0 3.03239e-07 0.250001 0 3.03701e-07 0.250001 0 3.04143e-07 0.250001 0 3.04564e-07 0.250001 0 3.04964e-07 0.250001 0 3.05446e-07 0.250001 0 3.05918e-07 0.250001 0 3.0638e-07 0.250001 0 3.06832e-07 0.250001 0 3.07274e-07 0.250001 0 3.07706e-07 0.250001 0 3.08127e-07 0.250001 0 3.08539e-07 0.250001 0 3.08941e-07 0.250001 0 3.09333e-07 0.250001 0 3.09715e-07 0.250001 0 3.10087e-07 0.250001 0 3.10449e-07 0.250001 0 3.10802e-07 0.250001 0 3.11144e-07 0.250001 0 3.11476e-07 0.250001 0 3.11798e-07 0.250001 0 3.1211e-07 0.250001 0 3.12412e-07 0.250001 0 3.12704e-07 0.250001 0 3.13096e-07 0.250001 0 3.13496e-07 0.250001 0 3.13905e-07 0.250001 0 3.14324e-07 0.250001 0 3.14751e-07 0.250001 0 3.15186e-07 0.250001 0 3.15631e-07 0.250001 0 3.16084e-07 0.250001 0 3.16547e-07 0.250001 0 3.17018e-07 0.250001 0 3.17498e-07 0.250001 0 3.17987e-07 0.250001 0 3.18484e-07 0.250001 0 3.18991e-07 0.250001 0 3.19506e-07 0.250001 0 3.2003e-07 0.250001 0 3.20563e-07 0.250001 0 3.21105e-07 0.250001 0 3.21656e-07 0.250001 0 3.22215e-07 0.250001 0 2.61296e-07 0.25 0 2.62791e-07 0.25 0 2.64259e-07 0.25 0 2.65701e-07 0.25 0 2.67116e-07 0.25 0 2.68505e-07 0.25 0 2.69868e-07 0.25 0 2.71203e-07 0.25 0 2.72513e-07 0.25 0 2.73796e-07 0.25 0 2.75052e-07 0.25 0 2.76281e-07 0.25 0 2.77485e-07 0.25 0 2.78661e-07 0.25 0 2.79811e-07 0.25 0 2.80935e-07 0.25 0 2.82032e-07 0.25 0 2.83103e-07 0.25 0 2.84147e-07 0.25 0 2.85164e-07 0.25 0 2.86155e-07 0.25 0 2.87199e-07 0.25 0 2.88221e-07 0.25 0 2.89221e-07 0.25 0 2.90198e-07 0.25 0 2.91152e-07 0.25 0 2.92085e-07 0.25 0 2.92995e-07 0.25 0 2.93883e-07 0.25 0 2.94748e-07 0.25 0 2.95591e-07 0.25 0 2.96412e-07 0.25 0 2.97211e-07 0.25 0 2.97987e-07 0.25 0 2.98741e-07 0.25 0 2.99472e-07 0.25 0 3.00181e-07 0.25 0 3.00868e-07 0.25 0 3.01533e-07 0.25 0 3.02175e-07 0.25 0 3.02795e-07 0.25 0 3.03567e-07 0.25 0 3.04319e-07 0.25 0 3.05051e-07 0.25 0 3.05762e-07 0.25 0 3.06453e-07 0.25 0 3.07123e-07 0.25 0 3.07772e-07 0.25 0 3.08401e-07 0.25 0 3.09009e-07 0.25 0 3.09597e-07 0.25 0 3.10165e-07 0.250001 0 3.10711e-07 0.250001 0 3.11238e-07 0.250001 0 3.11744e-07 0.250001 0 3.12229e-07 0.250001 0 3.12694e-07 0.250001 0 3.13138e-07 0.250001 0 3.13562e-07 0.250001 0 3.13965e-07 0.250001 0 3.14347e-07 0.250001 0 3.14827e-07 0.250001 0 3.15296e-07 0.250001 0 3.15755e-07 0.250001 0 3.16203e-07 0.250001 0 3.16642e-07 0.250001 0 3.1707e-07 0.250001 0 3.17489e-07 0.250001 0 3.17897e-07 0.250001 0 3.18295e-07 0.250001 0 3.18682e-07 0.250001 0 3.1906e-07 0.250001 0 3.19427e-07 0.250001 0 3.19784e-07 0.250001 0 3.20131e-07 0.250001 0 3.20468e-07 0.250001 0 3.20795e-07 0.250001 0 3.21112e-07 0.250001 0 3.21418e-07 0.250001 0 3.21714e-07 0.250001 0 3.22e-07 0.250001 0 3.22386e-07 0.250001 0 3.22781e-07 0.250001 0 3.23185e-07 0.250001 0 3.23599e-07 0.250001 0 3.24021e-07 0.250001 0 3.24452e-07 0.250001 0 3.24893e-07 0.250001 0 3.25343e-07 0.250001 0 3.25802e-07 0.250001 0 3.2627e-07 0.250001 0 3.26747e-07 0.250001 0 3.27233e-07 0.250001 0 3.27728e-07 0.250001 0 3.28233e-07 0.250001 0 3.28746e-07 0.250001 0 3.29269e-07 0.250001 0 3.298e-07 0.250001 0 3.30341e-07 0.250001 0 3.30891e-07 0.250001 0 3.3145e-07 0.250001 0 2.72119e-07 0.25 0 2.73578e-07 0.25 0 2.7501e-07 0.25 0 2.76417e-07 0.25 0 2.77798e-07 0.25 0 2.79153e-07 0.25 0 2.80483e-07 0.25 0 2.81786e-07 0.25 0 2.83063e-07 0.25 0 2.84314e-07 0.25 0 2.8554e-07 0.25 0 2.86739e-07 0.25 0 2.87913e-07 0.25 0 2.8906e-07 0.25 0 2.90182e-07 0.25 0 2.91278e-07 0.25 0 2.92348e-07 0.25 0 2.93391e-07 0.25 0 2.94409e-07 0.25 0 2.95401e-07 0.25 0 2.96367e-07 0.25 0 2.97385e-07 0.25 0 2.98381e-07 0.25 0 2.99355e-07 0.25 0 3.00308e-07 0.25 0 3.01239e-07 0.25 0 3.02148e-07 0.25 0 3.03035e-07 0.25 0 3.03901e-07 0.25 0 3.04745e-07 0.25 0 3.05568e-07 0.25 0 3.06369e-07 0.25 0 3.07148e-07 0.25 0 3.07906e-07 0.25 0 3.08641e-07 0.25 0 3.09356e-07 0.25 0 3.10048e-07 0.25 0 3.10719e-07 0.25 0 3.11368e-07 0.25 0 3.11996e-07 0.25 0 3.12602e-07 0.25 0 3.13348e-07 0.25 0 3.14075e-07 0.25 0 3.14781e-07 0.25 0 3.15468e-07 0.25 0 3.16135e-07 0.25 0 3.16781e-07 0.25 0 3.17408e-07 0.25 0 3.18015e-07 0.25 0 3.18602e-07 0.25 0 3.19169e-07 0.25 0 3.19716e-07 0.250001 0 3.20243e-07 0.250001 0 3.2075e-07 0.250001 0 3.21238e-07 0.250001 0 3.21705e-07 0.250001 0 3.22152e-07 0.250001 0 3.2258e-07 0.250001 0 3.22987e-07 0.250001 0 3.23375e-07 0.250001 0 3.23742e-07 0.250001 0 3.24221e-07 0.250001 0 3.24689e-07 0.250001 0 3.25147e-07 0.250001 0 3.25594e-07 0.250001 0 3.26031e-07 0.250001 0 3.26457e-07 0.250001 0 3.26873e-07 0.250001 0 3.27279e-07 0.250001 0 3.27674e-07 0.250001 0 3.28059e-07 0.250001 0 3.28434e-07 0.250001 0 3.28798e-07 0.250001 0 3.29151e-07 0.250001 0 3.29495e-07 0.250001 0 3.29828e-07 0.250001 0 3.3015e-07 0.250001 0 3.30462e-07 0.250001 0 3.30764e-07 0.250001 0 3.31055e-07 0.250001 0 3.31336e-07 0.250001 0 3.31717e-07 0.250001 0 3.32108e-07 0.250001 0 3.32507e-07 0.250001 0 3.32917e-07 0.250001 0 3.33335e-07 0.250001 0 3.33763e-07 0.250001 0 3.342e-07 0.250001 0 3.34646e-07 0.250001 0 3.35102e-07 0.250001 0 3.35567e-07 0.250001 0 3.36041e-07 0.250001 0 3.36525e-07 0.250001 0 3.37017e-07 0.250001 0 3.3752e-07 0.250001 0 3.38031e-07 0.250001 0 3.38552e-07 0.250001 0 3.39082e-07 0.250001 0 3.39621e-07 0.250001 0 3.4017e-07 0.250001 0 3.40728e-07 0.250001 0 2.82971e-07 0.25 0 2.84387e-07 0.25 0 2.85779e-07 0.25 0 2.87146e-07 0.25 0 2.88488e-07 0.25 0 2.89805e-07 0.25 0 2.91098e-07 0.25 0 2.92366e-07 0.25 0 2.93609e-07 0.25 0 2.94827e-07 0.25 0 2.96021e-07 0.25 0 2.9719e-07 0.25 0 2.98334e-07 0.25 0 2.99453e-07 0.25 0 3.00548e-07 0.25 0 3.01618e-07 0.25 0 3.02663e-07 0.25 0 3.03683e-07 0.25 0 3.04679e-07 0.25 0 3.05649e-07 0.25 0 3.06595e-07 0.25 0 3.07585e-07 0.25 0 3.08553e-07 0.25 0 3.09501e-07 0.25 0 3.10428e-07 0.25 0 3.11334e-07 0.25 0 3.12219e-07 0.25 0 3.13084e-07 0.25 0 3.13927e-07 0.25 0 3.1475e-07 0.25 0 3.15551e-07 0.25 0 3.16332e-07 0.25 0 3.17093e-07 0.25 0 3.17832e-07 0.25 0 3.1855e-07 0.25 0 3.19248e-07 0.25 0 3.19924e-07 0.25 0 3.2058e-07 0.25 0 3.21215e-07 0.25 0 3.2183e-07 0.25 0 3.22423e-07 0.25 0 3.23141e-07 0.25 0 3.23839e-07 0.25 0 3.24519e-07 0.25 0 3.2518e-07 0.25 0 3.25821e-07 0.25 0 3.26443e-07 0.25 0 3.27046e-07 0.25 0 3.2763e-07 0.25 0 3.28195e-07 0.25 0 3.28741e-07 0.25 0 3.29268e-07 0.250001 0 3.29775e-07 0.250001 0 3.30264e-07 0.250001 0 3.30733e-07 0.250001 0 3.31183e-07 0.250001 0 3.31615e-07 0.250001 0 3.32027e-07 0.250001 0 3.3242e-07 0.250001 0 3.32793e-07 0.250001 0 3.33148e-07 0.250001 0 3.33628e-07 0.250001 0 3.34097e-07 0.250001 0 3.34555e-07 0.250001 0 3.35003e-07 0.250001 0 3.3544e-07 0.250001 0 3.35866e-07 0.250001 0 3.36282e-07 0.250001 0 3.36687e-07 0.250001 0 3.37081e-07 0.250001 0 3.37464e-07 0.250001 0 3.37837e-07 0.250001 0 3.38199e-07 0.250001 0 3.38551e-07 0.250001 0 3.38891e-07 0.250001 0 3.39221e-07 0.250001 0 3.39541e-07 0.250001 0 3.39849e-07 0.250001 0 3.40147e-07 0.250001 0 3.40434e-07 0.250001 0 3.40711e-07 0.250001 0 3.41088e-07 0.250001 0 3.41475e-07 0.250001 0 3.41872e-07 0.250001 0 3.42277e-07 0.250001 0 3.42693e-07 0.250001 0 3.43117e-07 0.250001 0 3.43551e-07 0.250001 0 3.43994e-07 0.250001 0 3.44447e-07 0.250001 0 3.44909e-07 0.250001 0 3.45381e-07 0.250001 0 3.45862e-07 0.250001 0 3.46352e-07 0.250001 0 3.46852e-07 0.250001 0 3.47361e-07 0.250001 0 3.4788e-07 0.250001 0 3.48408e-07 0.250001 0 3.48945e-07 0.250001 0 3.49492e-07 0.250001 0 3.50048e-07 0.250001 0 2.93852e-07 0.25 0 2.9522e-07 0.25 0 2.96565e-07 0.25 0 2.97887e-07 0.25 0 2.99185e-07 0.25 0 3.00461e-07 0.25 0 3.01714e-07 0.25 0 3.02944e-07 0.25 0 3.04151e-07 0.25 0 3.05334e-07 0.25 0 3.06495e-07 0.25 0 3.07633e-07 0.25 0 3.0