<?xml version="1.0"?> 
<VTKFile type="StructuredGrid" version="0.1"> 
<StructuredGrid WholeExtent="0 100 0 100 0 0"> 
<Piece Extent="0 100 0 100 0 0"> 
<PointData Vectors="Mechanisum">
<DataArray type="Float32" Name="Mechanisum" format="ascii" NumberOfComponents="3"> 
5.74692e-06 0.249999 0 5.20816e-06 0.25 0 4.69564e-06 0.25 0 4.20951e-06 0.25 0 3.74994e-06 0.25 0 3.31707e-06 0.25 0 2.91107e-06 0.25 0 2.53208e-06 0.25 0 2.18023e-06 0.25 0 1.85568e-06 0.25 0 1.55856e-06 0.25 0 1.28899e-06 0.25 0 1.04711e-06 0.25 0 8.33033e-07 0.25 0 6.46877e-07 0.250001 0 4.88755e-07 0.250001 0 3.58775e-07 0.250001 0 2.5704e-07 0.250001 0 1.83647e-07 0.250001 0 1.38689e-07 0.250001 0 1.22255e-07 0.250001 0 9.02393e-08 0.250001 0 5.98893e-08 0.250001 0 3.12128e-08 0.250001 0 4.21679e-09 0.250001 0 -2.1092e-08 0.250001 0 -4.47071e-08 0.250001 0 -6.66224e-08 0.250001 0 -8.68322e-08 0.250001 0 -1.05331e-07 0.250001 0 -1.22113e-07 0.250001 0 -1.37174e-07 0.250001 0 -1.50509e-07 0.250001 0 -1.62114e-07 0.250001 0 -1.71985e-07 0.250001 0 -1.80118e-07 0.250001 0 -1.8651e-07 0.250001 0 -1.91158e-07 0.250001 0 -1.94059e-07 0.250001 0 -1.95212e-07 0.250001 0 -1.94613e-07 0.250001 0 -1.95259e-07 0.250001 0 -1.95829e-07 0.250001 0 -1.96323e-07 0.250001 0 -1.96741e-07 0.250001 0 -1.97083e-07 0.250001 0 -1.97349e-07 0.250001 0 -1.97539e-07 0.250001 0 -1.97652e-07 0.250001 0 -1.97689e-07 0.250001 0 -1.97649e-07 0.250001 0 -1.97534e-07 0.250001 0 -1.97341e-07 0.250001 0 -1.97073e-07 0.250001 0 -1.96728e-07 0.250001 0 -1.96308e-07 0.250001 0 -1.95811e-07 0.250001 0 -1.95238e-07 0.250001 0 -1.94589e-07 0.250001 0 -1.93864e-07 0.250001 0 -1.93063e-07 0.250001 0 -1.92362e-07 0.250001 0 -1.91666e-07 0.250001 0 -1.90977e-07 0.250001 0 -1.90293e-07 0.250001 0 -1.89615e-07 0.250001 0 -1.88943e-07 0.250001 0 -1.88277e-07 0.250001 0 -1.87617e-07 0.250001 0 -1.86963e-07 0.250001 0 -1.86315e-07 0.250001 0 -1.85674e-07 0.250001 0 -1.85039e-07 0.250001 0 -1.8441e-07 0.250001 0 -1.83788e-07 0.250001 0 -1.83172e-07 0.250001 0 -1.82563e-07 0.250001 0 -1.8196e-07 0.250001 0 -1.81364e-07 0.250001 0 -1.80774e-07 0.250001 0 -1.80191e-07 0.250001 0 -1.79661e-07 0.250001 0 -1.79159e-07 0.250001 0 -1.78684e-07 0.250001 0 -1.78238e-07 0.250001 0 -1.77819e-07 0.250001 0 -1.77427e-07 0.250001 0 -1.77064e-07 0.250001 0 -1.76727e-07 0.250001 0 -1.76419e-07 0.250001 0 -1.76138e-07 0.250001 0 -1.75884e-07 0.250001 0 -1.75657e-07 0.250001 0 -1.75458e-07 0.250001 0 -1.75285e-07 0.250001 0 -1.7514e-07 0.250001 0 -1.75021e-07 0.250001 0 -1.7493e-07 0.250001 0 -1.74865e-07 0.250001 0 -1.74826e-07 0.250001 0 -1.74814e-07 0.250001 0 5.07723e-06 0.25 0 4.59828e-06 0.25 0 4.14271e-06 0.25 0 3.71064e-06 0.25 0 3.30224e-06 0.25 0 2.91762e-06 0.25 0 2.55693e-06 0.25 0 2.22029e-06 0.25 0 1.90783e-06 0.25 0 1.61968e-06 0.25 0 1.35595e-06 0.25 0 1.11676e-06 0.25 0 9.02223e-07 0.25 0 7.12439e-07 0.25 0 5.47515e-07 0.250001 0 4.07548e-07 0.250001 0 2.92635e-07 0.250001 0 2.02865e-07 0.250001 0 1.38324e-07 0.250001 0 9.90951e-08 0.250001 0 8.52551e-08 0.250001 0 5.69842e-08 0.250001 0 3.02007e-08 0.250001 0 4.9108e-09 0.250001 0 -1.88792e-08 0.250001 0 -4.11635e-08 0.250001 0 -6.19363e-08 0.250001 0 -8.11923e-08 0.250001 0 -9.89263e-08 0.250001 0 -1.15134e-07 0.250001 0 -1.2981e-07 0.250001 0 -1.4295e-07 0.250001 0 -1.5455e-07 0.250001 0 -1.64607e-07 0.250001 0 -1.73118e-07 0.250001 0 -1.80078e-07 0.250001 0 -1.85485e-07 0.250001 0 -1.89336e-07 0.250001 0 -1.9163e-07 0.250001 0 -1.92363e-07 0.250001 0 -1.91535e-07 0.250001 0 -1.91981e-07 0.250001 0 -1.92363e-07 0.250001 0 -1.92679e-07 0.250001 0 -1.92929e-07 0.250001 0 -1.93115e-07 0.250001 0 -1.93235e-07 0.250001 0 -1.93289e-07 0.250001 0 -1.93278e-07 0.250001 0 -1.93202e-07 0.250001 0 -1.9306e-07 0.250001 0 -1.92852e-07 0.250001 0 -1.9258e-07 0.250001 0 -1.92241e-07 0.250001 0 -1.91838e-07 0.250001 0 -1.91369e-07 0.250001 0 -1.90835e-07 0.250001 0 -1.90235e-07 0.250001 0 -1.89571e-07 0.250001 0 -1.88842e-07 0.250001 0 -1.88048e-07 0.250001 0 -1.87317e-07 0.250001 0 -1.86598e-07 0.250001 0 -1.85888e-07 0.250001 0 -1.8519e-07 0.250001 0 -1.84502e-07 0.250001 0 -1.83825e-07 0.250001 0 -1.83158e-07 0.250001 0 -1.82503e-07 0.250001 0 -1.81858e-07 0.250001 0 -1.81224e-07 0.250001 0 -1.80601e-07 0.250001 0 -1.79989e-07 0.250001 0 -1.79388e-07 0.250001 0 -1.78798e-07 0.250001 0 -1.7822e-07 0.250001 0 -1.77652e-07 0.250001 0 -1.77095e-07 0.250001 0 -1.7655e-07 0.250001 0 -1.76016e-07 0.250001 0 -1.75493e-07 0.250001 0 -1.7498e-07 0.250001 0 -1.74495e-07 0.250001 0 -1.74036e-07 0.250001 0 -1.73606e-07 0.250001 0 -1.73202e-07 0.250001 0 -1.72825e-07 0.250001 0 -1.72476e-07 0.250001 0 -1.72154e-07 0.250001 0 -1.71858e-07 0.250001 0 -1.7159e-07 0.250001 0 -1.71348e-07 0.250001 0 -1.71133e-07 0.250001 0 -1.70945e-07 0.250001 0 -1.70783e-07 0.250001 0 -1.70648e-07 0.250001 0 -1.7054e-07 0.250001 0 -1.70457e-07 0.250001 0 -1.70401e-07 0.250001 0 -1.70371e-07 0.250001 0 -1.70367e-07 0.250001 0 4.44716e-06 0.25 0 4.02454e-06 0.25 0 3.6226e-06 0.25 0 3.24145e-06 0.25 0 2.88122e-06 0.25 0 2.54203e-06 0.25 0 2.22399e-06 0.25 0 1.92723e-06 0.25 0 1.65185e-06 0.25 0 1.39796e-06 0.25 0 1.16566e-06 0.25 0 9.5505e-07 0.25 0 7.66234e-07 0.25 0 5.99302e-07 0.250001 0 4.54343e-07 0.250001 0 3.31446e-07 0.250001 0 2.30691e-07 0.250001 0 1.52159e-07 0.250001 0 9.59238e-08 0.250001 0 6.2058e-08 0.250001 0 5.06291e-08 0.250001 0 2.58853e-08 0.250001 0 2.46005e-09 0.250001 0 -1.9641e-08 0.250001 0 -4.04125e-08 0.250001 0 -5.98493e-08 0.250001 0 -7.79465e-08 0.250001 0 -9.46993e-08 0.250001 0 -1.10103e-07 0.250001 0 -1.24154e-07 0.250001 0 -1.36848e-07 0.250001 0 -1.48181e-07 0.250001 0 -1.5815e-07 0.250001 0 -1.66752e-07 0.250001 0 -1.73982e-07 0.250001 0 -1.7984e-07 0.250001 0 -1.84322e-07 0.250001 0 -1.87425e-07 0.250001 0 -1.89149e-07 0.250001 0 -1.8949e-07 0.250001 0 -1.88449e-07 0.250001 0 -1.88706e-07 0.250001 0 -1.88909e-07 0.250001 0 -1.89056e-07 0.250001 0 -1.89149e-07 0.250001 0 -1.89185e-07 0.250001 0 -1.89167e-07 0.250001 0 -1.89093e-07 0.250001 0 -1.88964e-07 0.250001 0 -1.8878e-07 0.250001 0 -1.8854e-07 0.250001 0 -1.88245e-07 0.250001 0 -1.87895e-07 0.250001 0 -1.8749e-07 0.250001 0 -1.87029e-07 0.250001 0 -1.86513e-07 0.250001 0 -1.85943e-07 0.250001 0 -1.85317e-07 0.250001 0 -1.84636e-07 0.250001 0 -1.83901e-07 0.250001 0 -1.83111e-07 0.250001 0 -1.82354e-07 0.250001 0 -1.81612e-07 0.250001 0 -1.80885e-07 0.250001 0 -1.80173e-07 0.250001 0 -1.79475e-07 0.250001 0 -1.78793e-07 0.250001 0 -1.78126e-07 0.250001 0 -1.77474e-07 0.250001 0 -1.76837e-07 0.250001 0 -1.76215e-07 0.250001 0 -1.75608e-07 0.250001 0 -1.75017e-07 0.250001 0 -1.7444e-07 0.250001 0 -1.73879e-07 0.250001 0 -1.73334e-07 0.250001 0 -1.72803e-07 0.250001 0 -1.72288e-07 0.250001 0 -1.71788e-07 0.250001 0 -1.71304e-07 0.250001 0 -1.70835e-07 0.250001 0 -1.70338e-07 0.250001 0 -1.69869e-07 0.250001 0 -1.69426e-07 0.250001 0 -1.6901e-07 0.250001 0 -1.68621e-07 0.250001 0 -1.68258e-07 0.250001 0 -1.67922e-07 0.250001 0 -1.67612e-07 0.250001 0 -1.67329e-07 0.250001 0 -1.67072e-07 0.250001 0 -1.66842e-07 0.250001 0 -1.66638e-07 0.250001 0 -1.6646e-07 0.250001 0 -1.66309e-07 0.250001 0 -1.66183e-07 0.250001 0 -1.66083e-07 0.250001 0 -1.66009e-07 0.250001 0 -1.65961e-07 0.250001 0 -1.65939e-07 0.250001 0 -1.65941e-07 0.250001 0 3.85672e-06 0.25 0 3.48694e-06 0.25 0 3.13531e-06 0.25 0 2.80192e-06 0.25 0 2.48688e-06 0.25 0 2.19029e-06 0.25 0 1.91226e-06 0.25 0 1.65289e-06 0.25 0 1.41227e-06 0.25 0 1.1905e-06 0.25 0 9.87663e-07 0.25 0 8.03847e-07 0.25 0 6.39137e-07 0.25 0 4.93616e-07 0.250001 0 3.6736e-07 0.250001 0 2.60444e-07 0.250001 0 1.72942e-07 0.250001 0 1.0492e-07 0.250001 0 5.6444e-08 0.250001 0 2.75765e-08 0.250001 0 1.83758e-08 0.250001 0 -3.05922e-09 0.250001 0 -2.33342e-08 0.250001 0 -4.24441e-08 0.250001 0 -6.03845e-08 0.250001 0 -7.71508e-08 0.250001 0 -9.27388e-08 0.250001 0 -1.07144e-07 0.250001 0 -1.20364e-07 0.250001 0 -1.32393e-07 0.250001 0 -1.43229e-07 0.250001 0 -1.52869e-07 0.250001 0 -1.61309e-07 0.250001 0 -1.68547e-07 0.250001 0 -1.74579e-07 0.250001 0 -1.79405e-07 0.250001 0 -1.8302e-07 0.250001 0 -1.85425e-07 0.250001 0 -1.86616e-07 0.250001 0 -1.86593e-07 0.250001 0 -1.85353e-07 0.250001 0 -1.85433e-07 0.250001 0 -1.85468e-07 0.250001 0 -1.85456e-07 0.250001 0 -1.85399e-07 0.250001 0 -1.85296e-07 0.250001 0 -1.85147e-07 0.250001 0 -1.84952e-07 0.250001 0 -1.84711e-07 0.250001 0 -1.84424e-07 0.250001 0 -1.84091e-07 0.250001 0 -1.83713e-07 0.250001 0 -1.83289e-07 0.250001 0 -1.82819e-07 0.250001 0 -1.82303e-07 0.250001 0 -1.81741e-07 0.250001 0 -1.81135e-07 0.250001 0 -1.80482e-07 0.250001 0 -1.79784e-07 0.250001 0 -1.79041e-07 0.250001 0 -1.78253e-07 0.250001 0 -1.77472e-07 0.250001 0 -1.76709e-07 0.250001 0 -1.75966e-07 0.250001 0 -1.75241e-07 0.250001 0 -1.74535e-07 0.250001 0 -1.73847e-07 0.250001 0 -1.73179e-07 0.250001 0 -1.72529e-07 0.250001 0 -1.71899e-07 0.250001 0 -1.71287e-07 0.250001 0 -1.70695e-07 0.250001 0 -1.70121e-07 0.250001 0 -1.69567e-07 0.250001 0 -1.69031e-07 0.250001 0 -1.68515e-07 0.250001 0 -1.68017e-07 0.250001 0 -1.67539e-07 0.250001 0 -1.67079e-07 0.250001 0 -1.66639e-07 0.250001 0 -1.66218e-07 0.250001 0 -1.65736e-07 0.250001 0 -1.65281e-07 0.250001 0 -1.64853e-07 0.250001 0 -1.6445e-07 0.250001 0 -1.64074e-07 0.250001 0 -1.63724e-07 0.250001 0 -1.63401e-07 0.250001 0 -1.63103e-07 0.250001 0 -1.62831e-07 0.250001 0 -1.62586e-07 0.250001 0 -1.62366e-07 0.250001 0 -1.62172e-07 0.250001 0 -1.62004e-07 0.250001 0 -1.61861e-07 0.250001 0 -1.61744e-07 0.250001 0 -1.61652e-07 0.250001 0 -1.61586e-07 0.250001 0 -1.61545e-07 0.250001 0 -1.6153e-07 0.250001 0 -1.61539e-07 0.250001 0 3.30589e-06 0.25 0 2.98548e-06 0.25 0 2.68084e-06 0.25 0 2.39205e-06 0.25 0 2.11921e-06 0.25 0 1.86241e-06 0.25 0 1.62174e-06 0.25 0 1.39728e-06 0.25 0 1.18911e-06 0.25 0 9.97312e-07 0.25 0 8.21968e-07 0.25 0 6.6315e-07 0.25 0 5.2093e-07 0.25 0 3.95378e-07 0.250001 0 2.8656e-07 0.250001 0 1.94542e-07 0.250001 0 1.19384e-07 0.250001 0 6.11455e-08 0.250001 0 1.98826e-08 0.250001 0 -4.35151e-09 0.250001 0 -1.15066e-08 0.250001 0 -2.9851e-08 0.250001 0 -4.71835e-08 0.250001 0 -6.35e-08 0.250001 0 -7.87965e-08 0.250001 0 -9.30692e-08 0.250001 0 -1.06314e-07 0.250001 0 -1.18529e-07 0.250001 0 -1.29709e-07 0.250001 0 -1.39851e-07 0.250001 0 -1.48954e-07 0.250001 0 -1.57013e-07 0.250001 0 -1.64027e-07 0.250001 0 -1.69993e-07 0.250001 0 -1.74909e-07 0.250001 0 -1.78772e-07 0.250001 0 -1.81582e-07 0.250001 0 -1.83335e-07 0.250001 0 -1.84032e-07 0.250001 0 -1.8367e-07 0.250001 0 -1.82249e-07 0.250001 0 -1.82163e-07 0.250001 0 -1.82039e-07 0.250001 0 -1.81878e-07 0.250001 0 -1.8168e-07 0.250001 0 -1.81445e-07 0.250001 0 -1.81173e-07 0.250001 0 -1.80863e-07 0.250001 0 -1.80517e-07 0.250001 0 -1.80133e-07 0.250001 0 -1.79712e-07 0.250001 0 -1.79254e-07 0.250001 0 -1.78759e-07 0.250001 0 -1.78227e-07 0.250001 0 -1.77658e-07 0.250001 0 -1.77053e-07 0.250001 0 -1.7641e-07 0.250001 0 -1.75731e-07 0.250001 0 -1.75015e-07 0.250001 0 -1.74262e-07 0.250001 0 -1.73474e-07 0.250001 0 -1.72671e-07 0.250001 0 -1.7189e-07 0.250001 0 -1.71131e-07 0.250001 0 -1.70394e-07 0.250001 0 -1.6968e-07 0.250001 0 -1.68988e-07 0.250001 0 -1.68318e-07 0.250001 0 -1.6767e-07 0.250001 0 -1.67045e-07 0.250001 0 -1.66442e-07 0.250001 0 -1.65861e-07 0.250001 0 -1.65303e-07 0.250001 0 -1.64767e-07 0.250001 0 -1.64253e-07 0.250001 0 -1.63762e-07 0.250001 0 -1.63293e-07 0.250001 0 -1.62847e-07 0.250001 0 -1.62423e-07 0.250001 0 -1.62021e-07 0.250001 0 -1.61641e-07 0.250001 0 -1.61174e-07 0.250001 0 -1.60732e-07 0.250001 0 -1.60317e-07 0.250001 0 -1.59927e-07 0.250001 0 -1.59563e-07 0.250001 0 -1.59225e-07 0.250001 0 -1.58913e-07 0.250001 0 -1.58626e-07 0.250001 0 -1.58365e-07 0.250001 0 -1.58129e-07 0.250001 0 -1.57919e-07 0.250001 0 -1.57734e-07 0.250001 0 -1.57575e-07 0.250001 0 -1.5744e-07 0.250001 0 -1.57331e-07 0.250001 0 -1.57247e-07 0.250001 0 -1.57188e-07 0.250001 0 -1.57154e-07 0.250001 0 -1.57145e-07 0.250001 0 -1.5716e-07 0.250001 0 2.79469e-06 0.25 0 2.52016e-06 0.25 0 2.25918e-06 0.25 0 2.01184e-06 0.25 0 1.77822e-06 0.25 0 1.55838e-06 0.25 0 1.35241e-06 0.25 0 1.16037e-06 0.25 0 9.82339e-07 0.25 0 8.18383e-07 0.25 0 6.68567e-07 0.25 0 5.32955e-07 0.25 0 4.11607e-07 0.250001 0 3.04584e-07 0.250001 0 2.11941e-07 0.250001 0 1.33734e-07 0.250001 0 7.0015e-08 0.250001 0 2.08337e-08 0.250001 0 -1.37622e-08 0.250001 0 -3.37277e-08 0.250001 0 -3.902e-08 0.250001 0 -5.44917e-08 0.250001 0 -6.90896e-08 0.250001 0 -8.28101e-08 0.250001 0 -9.56498e-08 0.250001 0 -1.07606e-07 0.250001 0 -1.18674e-07 0.250001 0 -1.28853e-07 0.250001 0 -1.38139e-07 0.250001 0 -1.4653e-07 0.250001 0 -1.54022e-07 0.250001 0 -1.60615e-07 0.250001 0 -1.66305e-07 0.250001 0 -1.71091e-07 0.250001 0 -1.74971e-07 0.250001 0 -1.77943e-07 0.250001 0 -1.80005e-07 0.250001 0 -1.81157e-07 0.250001 0 -1.81396e-07 0.250001 0 -1.80723e-07 0.250001 0 -1.79136e-07 0.250001 0 -1.78894e-07 0.250001 0 -1.78623e-07 0.250001 0 -1.78322e-07 0.250001 0 -1.77993e-07 0.250001 0 -1.77634e-07 0.250001 0 -1.77246e-07 0.250001 0 -1.76829e-07 0.250001 0 -1.76383e-07 0.250001 0 -1.75907e-07 0.250001 0 -1.75403e-07 0.250001 0 -1.7487e-07 0.250001 0 -1.74307e-07 0.250001 0 -1.73716e-07 0.250001 0 -1.73096e-07 0.250001 0 -1.72447e-07 0.250001 0 -1.71769e-07 0.250001 0 -1.71063e-07 0.250001 0 -1.70328e-07 0.250001 0 -1.69565e-07 0.250001 0 -1.68773e-07 0.250001 0 -1.6795e-07 0.250001 0 -1.67153e-07 0.250001 0 -1.66381e-07 0.250001 0 -1.65633e-07 0.250001 0 -1.64911e-07 0.250001 0 -1.64214e-07 0.250001 0 -1.63542e-07 0.250001 0 -1.62896e-07 0.250001 0 -1.62274e-07 0.250001 0 -1.61678e-07 0.250001 0 -1.61107e-07 0.250001 0 -1.60562e-07 0.250001 0 -1.60041e-07 0.250001 0 -1.59546e-07 0.250001 0 -1.59076e-07 0.250001 0 -1.58632e-07 0.250001 0 -1.58212e-07 0.250001 0 -1.57818e-07 0.250001 0 -1.57449e-07 0.250001 0 -1.57105e-07 0.250001 0 -1.5665e-07 0.250001 0 -1.56222e-07 0.250001 0 -1.55818e-07 0.250001 0 -1.5544e-07 0.250001 0 -1.55087e-07 0.250001 0 -1.5476e-07 0.250001 0 -1.54458e-07 0.250001 0 -1.54181e-07 0.250001 0 -1.5393e-07 0.250001 0 -1.53703e-07 0.250001 0 -1.53502e-07 0.250001 0 -1.53325e-07 0.250001 0 -1.53174e-07 0.250001 0 -1.53047e-07 0.250001 0 -1.52945e-07 0.250001 0 -1.52868e-07 0.250001 0 -1.52815e-07 0.250001 0 -1.52787e-07 0.250001 0 -1.52783e-07 0.250001 0 -1.52803e-07 0.250001 0 2.32312e-06 0.25 0 2.09097e-06 0.25 0 1.87034e-06 0.25 0 1.66129e-06 0.25 0 1.46389e-06 0.25 0 1.27819e-06 0.25 0 1.10426e-06 0.25 0 9.4217e-07 0.25 0 7.91966e-07 0.25 0 6.53709e-07 0.25 0 5.27455e-07 0.25 0 4.13256e-07 0.25 0 3.11164e-07 0.250001 0 2.2123e-07 0.250001 0 1.43499e-07 0.250001 0 7.80189e-08 0.250001 0 2.48326e-08 0.250001 0 -1.60179e-08 0.250001 0 -4.44927e-08 0.250001 0 -6.0554e-08 0.250001 0 -6.41661e-08 0.250001 0 -7.6983e-08 0.250001 0 -8.90539e-08 0.250001 0 -1.00376e-07 0.250001 0 -1.10946e-07 0.250001 0 -1.20761e-07 0.250001 0 -1.2982e-07 0.250001 0 -1.38119e-07 0.250001 0 -1.45656e-07 0.250001 0 -1.52429e-07 0.250001 0 -1.58436e-07 0.250001 0 -1.63675e-07 0.250001 0 -1.68144e-07 0.250001 0 -1.71841e-07 0.250001 0 -1.74766e-07 0.250001 0 -1.76917e-07 0.250001 0 -1.78291e-07 0.250001 0 -1.78889e-07 0.250001 0 -1.7871e-07 0.250001 0 -1.77751e-07 0.250001 0 -1.76014e-07 0.250001 0 -1.75627e-07 0.250001 0 -1.75219e-07 0.250001 0 -1.74789e-07 0.250001 0 -1.74336e-07 0.250001 0 -1.73862e-07 0.250001 0 -1.73366e-07 0.250001 0 -1.72848e-07 0.250001 0 -1.72309e-07 0.250001 0 -1.71747e-07 0.250001 0 -1.71164e-07 0.250001 0 -1.70559e-07 0.250001 0 -1.69933e-07 0.250001 0 -1.69285e-07 0.250001 0 -1.68615e-07 0.250001 0 -1.67924e-07 0.250001 0 -1.67212e-07 0.250001 0 -1.66478e-07 0.250001 0 -1.65723e-07 0.250001 0 -1.64948e-07 0.250001 0 -1.64151e-07 0.250001 0 -1.63311e-07 0.250001 0 -1.62499e-07 0.250001 0 -1.61714e-07 0.250001 0 -1.60957e-07 0.250001 0 -1.60228e-07 0.250001 0 -1.59526e-07 0.250001 0 -1.58852e-07 0.250001 0 -1.58206e-07 0.250001 0 -1.57587e-07 0.250001 0 -1.56996e-07 0.250001 0 -1.56433e-07 0.250001 0 -1.55897e-07 0.250001 0 -1.55389e-07 0.250001 0 -1.54909e-07 0.250001 0 -1.54457e-07 0.250001 0 -1.54032e-07 0.250001 0 -1.53635e-07 0.250001 0 -1.53265e-07 0.250001 0 -1.52923e-07 0.250001 0 -1.52609e-07 0.250001 0 -1.52166e-07 0.250001 0 -1.51749e-07 0.250001 0 -1.51356e-07 0.250001 0 -1.50989e-07 0.250001 0 -1.50647e-07 0.250001 0 -1.50329e-07 0.250001 0 -1.50037e-07 0.250001 0 -1.49769e-07 0.250001 0 -1.49526e-07 0.250001 0 -1.49308e-07 0.250001 0 -1.49114e-07 0.250001 0 -1.48945e-07 0.250001 0 -1.48801e-07 0.250001 0 -1.48681e-07 0.250001 0 -1.48585e-07 0.250001 0 -1.48514e-07 0.250001 0 -1.48467e-07 0.250001 0 -1.48443e-07 0.250001 0 -1.48444e-07 0.250001 0 -1.48469e-07 0.250001 0 1.89116e-06 0.25 0 1.69792e-06 0.25 0 1.51431e-06 0.25 0 1.34039e-06 0.25 0 1.17622e-06 0.25 0 1.02184e-06 0.25 0 8.77307e-07 0.25 0 7.42671e-07 0.25 0 6.17982e-07 0.25 0 5.03285e-07 0.25 0 3.98626e-07 0.25 0 3.04049e-07 0.25 0 2.19598e-07 0.250001 0 1.45312e-07 0.250001 0 8.1231e-08 0.250001 0 2.73929e-08 0.250001 0 -1.61661e-08 0.250001 0 -4.94115e-08 0.250001 0 -7.23106e-08 0.250001 0 -8.48322e-08 0.250001 0 -8.69466e-08 0.250001 0 -9.73266e-08 0.250001 0 -1.07078e-07 0.250001 0 -1.16199e-07 0.250001 0 -1.24686e-07 0.250001 0 -1.32537e-07 0.250001 0 -1.39752e-07 0.250001 0 -1.46326e-07 0.250001 0 -1.52259e-07 0.250001 0 -1.57549e-07 0.250001 0 -1.62194e-07 0.250001 0 -1.66192e-07 0.250001 0 -1.69543e-07 0.250001 0 -1.72244e-07 0.250001 0 -1.74295e-07 0.250001 0 -1.75694e-07 0.250001 0 -1.7644e-07 0.250001 0 -1.76533e-07 0.250001 0 -1.75971e-07 0.250001 0 -1.74755e-07 0.250001 0 -1.72883e-07 0.250001 0 -1.72363e-07 0.250001 0 -1.71828e-07 0.250001 0 -1.71277e-07 0.250001 0 -1.70711e-07 0.250001 0 -1.7013e-07 0.250001 0 -1.69533e-07 0.250001 0 -1.68921e-07 0.250001 0 -1.68294e-07 0.250001 0 -1.67652e-07 0.250001 0 -1.66995e-07 0.250001 0 -1.66322e-07 0.250001 0 -1.65635e-07 0.250001 0 -1.64933e-07 0.250001 0 -1.64216e-07 0.250001 0 -1.63484e-07 0.250001 0 -1.62738e-07 0.250001 0 -1.61977e-07 0.250001 0 -1.61201e-07 0.250001 0 -1.60411e-07 0.250001 0 -1.59607e-07 0.250001 0 -1.58752e-07 0.250001 0 -1.57928e-07 0.250001 0 -1.57132e-07 0.250001 0 -1.56367e-07 0.250001 0 -1.5563e-07 0.250001 0 -1.54924e-07 0.250001 0 -1.54247e-07 0.250001 0 -1.536e-07 0.250001 0 -1.52983e-07 0.250001 0 -1.52396e-07 0.250001 0 -1.51838e-07 0.250001 0 -1.5131e-07 0.250001 0 -1.50812e-07 0.250001 0 -1.50343e-07 0.250001 0 -1.49904e-07 0.250001 0 -1.49495e-07 0.250001 0 -1.49115e-07 0.250001 0 -1.48765e-07 0.250001 0 -1.48445e-07 0.250001 0 -1.48154e-07 0.250001 0 -1.47722e-07 0.250001 0 -1.47315e-07 0.250001 0 -1.46932e-07 0.250001 0 -1.46574e-07 0.250001 0 -1.46241e-07 0.250001 0 -1.45933e-07 0.250001 0 -1.45648e-07 0.250001 0 -1.45389e-07 0.250001 0 -1.45154e-07 0.250001 0 -1.44943e-07 0.250001 0 -1.44756e-07 0.250001 0 -1.44594e-07 0.250001 0 -1.44456e-07 0.250001 0 -1.44342e-07 0.250001 0 -1.44252e-07 0.250001 0 -1.44185e-07 0.250001 0 -1.44143e-07 0.250001 0 -1.44124e-07 0.250001 0 -1.44129e-07 0.250001 0 -1.44158e-07 0.250001 0 1.49883e-06 0.25 0 1.341e-06 0.25 0 1.19109e-06 0.25 0 1.04914e-06 0.25 0 9.15206e-07 0.25 0 7.89321e-07 0.25 0 6.71527e-07 0.25 0 5.61868e-07 0.25 0 4.6038e-07 0.25 0 3.67104e-07 0.25 0 2.82075e-07 0.25 0 2.0533e-07 0.250001 0 1.36903e-07 0.250001 0 7.68263e-08 0.250001 0 2.5133e-08 0.250001 0 -1.81467e-08 0.250001 0 -5.29836e-08 0.250001 0 -7.93496e-08 0.250001 0 -9.72182e-08 0.250001 0 -1.06564e-07 0.250001 0 -1.07363e-07 0.250001 0 -1.15524e-07 0.250001 0 -1.23164e-07 0.250001 0 -1.3028e-07 0.250001 0 -1.36871e-07 0.250001 0 -1.42935e-07 0.250001 0 -1.48471e-07 0.250001 0 -1.53477e-07 0.250001 0 -1.57951e-07 0.250001 0 -1.61892e-07 0.250001 0 -1.65298e-07 0.250001 0 -1.68169e-07 0.250001 0 -1.70503e-07 0.250001 0 -1.723e-07 0.250001 0 -1.73557e-07 0.250001 0 -1.74275e-07 0.250001 0 -1.74452e-07 0.250001 0 -1.74088e-07 0.250001 0 -1.73182e-07 0.250001 0 -1.71734e-07 0.250001 0 -1.69743e-07 0.250001 0 -1.69101e-07 0.250001 0 -1.68449e-07 0.250001 0 -1.67787e-07 0.250001 0 -1.67116e-07 0.250001 0 -1.66436e-07 0.250001 0 -1.65746e-07 0.250001 0 -1.65047e-07 0.250001 0 -1.64339e-07 0.250001 0 -1.63621e-07 0.250001 0 -1.62895e-07 0.250001 0 -1.62159e-07 0.250001 0 -1.61415e-07 0.250001 0 -1.60661e-07 0.250001 0 -1.59899e-07 0.250001 0 -1.59127e-07 0.250001 0 -1.58347e-07 0.250001 0 -1.57559e-07 0.250001 0 -1.56761e-07 0.250001 0 -1.55956e-07 0.250001 0 -1.55142e-07 0.250001 0 -1.54275e-07 0.250001 0 -1.53439e-07 0.250001 0 -1.52634e-07 0.250001 0 -1.51861e-07 0.250001 0 -1.51119e-07 0.250001 0 -1.50408e-07 0.250001 0 -1.49728e-07 0.250001 0 -1.4908e-07 0.250001 0 -1.48463e-07 0.250001 0 -1.47877e-07 0.250001 0 -1.47322e-07 0.250001 0 -1.46799e-07 0.250001 0 -1.46307e-07 0.250001 0 -1.45847e-07 0.250001 0 -1.45418e-07 0.250001 0 -1.45019e-07 0.250001 0 -1.44653e-07 0.250001 0 -1.44317e-07 0.250001 0 -1.44012e-07 0.250001 0 -1.43739e-07 0.250001 0 -1.43316e-07 0.250001 0 -1.42918e-07 0.250001 0 -1.42545e-07 0.250001 0 -1.42196e-07 0.250001 0 -1.41871e-07 0.250001 0 -1.4157e-07 0.250001 0 -1.41293e-07 0.250001 0 -1.41041e-07 0.250001 0 -1.40813e-07 0.250001 0 -1.40608e-07 0.250001 0 -1.40428e-07 0.250001 0 -1.40271e-07 0.250001 0 -1.40139e-07 0.250001 0 -1.4003e-07 0.250001 0 -1.39944e-07 0.250001 0 -1.39883e-07 0.250001 0 -1.39844e-07 0.250001 0 -1.39829e-07 0.250001 0 -1.39838e-07 0.250001 0 -1.3987e-07 0.250001 0 1.14612e-06 0.25 0 1.02021e-06 0.25 0 9.00669e-07 0.25 0 7.87537e-07 0.25 0 6.80846e-07 0.25 0 5.8063e-07 0.25 0 4.86921e-07 0.25 0 3.99753e-07 0.25 0 3.19157e-07 0.25 0 2.45162e-07 0.25 0 1.77798e-07 0.25 0 1.17093e-07 0.250001 0 6.30747e-08 0.250001 0 1.57692e-08 0.250001 0 -2.47981e-08 0.250001 0 -5.86031e-08 0.250001 0 -8.56226e-08 0.250001 0 -1.05834e-07 0.250001 0 -1.19217e-07 0.250001 0 -1.25752e-07 0.250001 0 -1.25418e-07 0.250001 0 -1.31577e-07 0.250001 0 -1.37312e-07 0.250001 0 -1.42621e-07 0.250001 0 -1.47503e-07 0.250001 0 -1.51956e-07 0.250001 0 -1.55979e-07 0.250001 0 -1.59572e-07 0.250001 0 -1.62731e-07 0.250001 0 -1.65457e-07 0.250001 0 -1.67749e-07 0.250001 0 -1.69605e-07 0.250001 0 -1.71025e-07 0.250001 0 -1.72008e-07 0.250001 0 -1.72553e-07 0.250001 0 -1.72659e-07 0.250001 0 -1.72327e-07 0.250001 0 -1.71554e-07 0.250001 0 -1.70341e-07 0.250001 0 -1.68688e-07 0.250001 0 -1.66594e-07 0.250001 0 -1.65841e-07 0.250001 0 -1.65082e-07 0.250001 0 -1.6432e-07 0.250001 0 -1.63553e-07 0.250001 0 -1.62782e-07 0.250001 0 -1.62006e-07 0.250001 0 -1.61227e-07 0.250001 0 -1.60443e-07 0.250001 0 -1.59656e-07 0.250001 0 -1.58865e-07 0.250001 0 -1.5807e-07 0.250001 0 -1.57271e-07 0.250001 0 -1.56469e-07 0.250001 0 -1.55663e-07 0.250001 0 -1.54853e-07 0.250001 0 -1.5404e-07 0.250001 0 -1.53223e-07 0.250001 0 -1.52404e-07 0.250001 0 -1.51581e-07 0.250001 0 -1.50754e-07 0.250001 0 -1.49877e-07 0.250001 0 -1.49032e-07 0.250001 0 -1.4822e-07 0.250001 0 -1.4744e-07 0.250001 0 -1.46692e-07 0.250001 0 -1.45977e-07 0.250001 0 -1.45294e-07 0.250001 0 -1.44643e-07 0.250001 0 -1.44025e-07 0.250001 0 -1.43439e-07 0.250001 0 -1.42886e-07 0.250001 0 -1.42365e-07 0.250001 0 -1.41877e-07 0.250001 0 -1.41421e-07 0.250001 0 -1.40998e-07 0.250001 0 -1.40606e-07 0.250001 0 -1.40247e-07 0.250001 0 -1.39921e-07 0.250001 0 -1.39626e-07 0.250001 0 -1.39364e-07 0.250001 0 -1.3895e-07 0.250001 0 -1.3856e-07 0.250001 0 -1.38195e-07 0.250001 0 -1.37853e-07 0.250001 0 -1.37535e-07 0.250001 0 -1.37241e-07 0.250001 0 -1.36971e-07 0.250001 0 -1.36725e-07 0.250001 0 -1.36503e-07 0.250001 0 -1.36304e-07 0.250001 0 -1.36129e-07 0.250001 0 -1.35977e-07 0.250001 0 -1.35849e-07 0.250001 0 -1.35745e-07 0.250001 0 -1.35663e-07 0.250001 0 -1.35605e-07 0.250001 0 -1.3557e-07 0.250001 0 -1.35559e-07 0.250001 0 -1.3557e-07 0.250001 0 -1.35604e-07 0.250001 0 8.33026e-07 0.25 0 7.35545e-07 0.25 0 6.4305e-07 0.25 0 5.5557e-07 0.25 0 4.73132e-07 0.25 0 3.95761e-07 0.25 0 3.23483e-07 0.25 0 2.56323e-07 0.25 0 1.94305e-07 0.25 0 1.37453e-07 0.25 0 8.57884e-08 0.250001 0 3.93336e-08 0.250001 0 -1.89043e-09 0.250001 0 -3.78634e-08 0.250001 0 -6.8566e-08 0.250001 0 -9.39793e-08 0.250001 0 -1.14086e-07 0.250001 0 -1.28868e-07 0.250001 0 -1.3831e-07 0.250001 0 -1.42396e-07 0.250001 0 -1.41113e-07 0.250001 0 -1.45488e-07 0.250001 0 -1.49525e-07 0.250001 0 -1.53224e-07 0.250001 0 -1.56583e-07 0.250001 0 -1.59601e-07 0.250001 0 -1.62278e-07 0.250001 0 -1.64611e-07 0.250001 0 -1.66601e-07 0.250001 0 -1.68247e-07 0.250001 0 -1.69547e-07 0.250001 0 -1.70502e-07 0.250001 0 -1.7111e-07 0.250001 0 -1.7137e-07 0.250001 0 -1.71283e-07 0.250001 0 -1.70848e-07 0.250001 0 -1.70064e-07 0.250001 0 -1.68932e-07 0.250001 0 -1.6745e-07 0.250001 0 -1.65618e-07 0.250001 0 -1.63437e-07 0.250001 0 -1.62583e-07 0.250001 0 -1.61728e-07 0.250001 0 -1.60874e-07 0.250001 0 -1.6002e-07 0.250001 0 -1.59166e-07 0.250001 0 -1.58313e-07 0.250001 0 -1.5746e-07 0.250001 0 -1.56607e-07 0.250001 0 -1.55756e-07 0.250001 0 -1.54905e-07 0.250001 0 -1.54054e-07 0.250001 0 -1.53205e-07 0.250001 0 -1.52356e-07 0.250001 0 -1.51508e-07 0.250001 0 -1.50661e-07 0.250001 0 -1.49816e-07 0.250001 0 -1.48971e-07 0.250001 0 -1.48128e-07 0.250001 0 -1.47286e-07 0.250001 0 -1.46445e-07 0.250001 0 -1.45561e-07 0.250001 0 -1.44709e-07 0.250001 0 -1.4389e-07 0.250001 0 -1.43104e-07 0.250001 0 -1.42351e-07 0.250001 0 -1.41631e-07 0.250001 0 -1.40945e-07 0.250001 0 -1.40291e-07 0.250001 0 -1.39671e-07 0.250001 0 -1.39083e-07 0.250001 0 -1.38529e-07 0.250001 0 -1.38008e-07 0.250001 0 -1.3752e-07 0.250001 0 -1.37066e-07 0.250001 0 -1.36644e-07 0.250001 0 -1.36255e-07 0.250001 0 -1.35899e-07 0.250001 0 -1.35576e-07 0.250001 0 -1.35286e-07 0.250001 0 -1.35029e-07 0.250001 0 -1.34623e-07 0.250001 0 -1.3424e-07 0.250001 0 -1.33882e-07 0.250001 0 -1.33546e-07 0.250001 0 -1.33235e-07 0.250001 0 -1.32947e-07 0.250001 0 -1.32683e-07 0.250001 0 -1.32442e-07 0.250001 0 -1.32224e-07 0.250001 0 -1.3203e-07 0.250001 0 -1.31859e-07 0.250001 0 -1.31712e-07 0.250001 0 -1.31588e-07 0.250001 0 -1.31487e-07 0.250001 0 -1.31409e-07 0.250001 0 -1.31354e-07 0.250001 0 -1.31321e-07 0.250001 0 -1.31312e-07 0.250001 0 -1.31325e-07 0.250001 0 -1.31361e-07 0.250001 0 5.59559e-07 0.25 0 4.8701e-07 0.25 0 4.1823e-07 0.25 0 3.5324e-07 0.25 0 2.9206e-07 0.25 0 2.34709e-07 0.25 0 1.81207e-07 0.25 0 1.31571e-07 0.25 0 8.58206e-08 0.25 0 4.39719e-08 0.25 0 6.04204e-09 0.250001 0 -2.79528e-08 0.250001 0 -5.7997e-08 0.250001 0 -8.40755e-08 0.250001 0 -1.06174e-07 0.250001 0 -1.24278e-07 0.250001 0 -1.38375e-07 0.250001 0 -1.48453e-07 0.250001 0 -1.54498e-07 0.250001 0 -1.565e-07 0.250001 0 -1.54449e-07 0.250001 0 -1.57257e-07 0.250001 0 -1.59804e-07 0.250001 0 -1.6209e-07 0.250001 0 -1.64112e-07 0.250001 0 -1.65871e-07 0.250001 0 -1.67367e-07 0.250001 0 -1.68597e-07 0.250001 0 -1.69562e-07 0.250001 0 -1.70261e-07 0.250001 0 -1.70693e-07 0.250001 0 -1.70858e-07 0.250001 0 -1.70756e-07 0.250001 0 -1.70386e-07 0.250001 0 -1.69748e-07 0.250001 0 -1.68841e-07 0.250001 0 -1.67666e-07 0.250001 0 -1.66221e-07 0.250001 0 -1.64507e-07 0.250001 0 -1.62524e-07 0.250001 0 -1.60271e-07 0.250001 0 -1.59327e-07 0.250001 0 -1.58386e-07 0.250001 0 -1.5745e-07 0.250001 0 -1.56518e-07 0.250001 0 -1.5559e-07 0.250001 0 -1.54666e-07 0.250001 0 -1.53746e-07 0.250001 0 -1.52831e-07 0.250001 0 -1.5192e-07 0.250001 0 -1.51014e-07 0.250001 0 -1.50112e-07 0.250001 0 -1.49215e-07 0.250001 0 -1.48322e-07 0.250001 0 -1.47435e-07 0.250001 0 -1.46552e-07 0.250001 0 -1.45674e-07 0.250001 0 -1.44802e-07 0.250001 0 -1.43934e-07 0.250001 0 -1.43072e-07 0.250001 0 -1.42215e-07 0.250001 0 -1.41324e-07 0.250001 0 -1.40467e-07 0.250001 0 -1.39643e-07 0.250001 0 -1.38852e-07 0.250001 0 -1.38095e-07 0.250001 0 -1.37371e-07 0.250001 0 -1.3668e-07 0.250001 0 -1.36023e-07 0.250001 0 -1.35399e-07 0.250001 0 -1.34809e-07 0.250001 0 -1.34252e-07 0.250001 0 -1.33728e-07 0.250001 0 -1.33237e-07 0.250001 0 -1.3278e-07 0.250001 0 -1.32356e-07 0.250001 0 -1.31966e-07 0.250001 0 -1.31608e-07 0.250001 0 -1.31284e-07 0.250001 0 -1.30993e-07 0.250001 0 -1.30735e-07 0.250001 0 -1.30335e-07 0.250001 0 -1.29959e-07 0.250001 0 -1.29606e-07 0.250001 0 -1.29276e-07 0.250001 0 -1.2897e-07 0.250001 0 -1.28687e-07 0.250001 0 -1.28427e-07 0.250001 0 -1.2819e-07 0.250001 0 -1.27977e-07 0.250001 0 -1.27787e-07 0.250001 0 -1.2762e-07 0.250001 0 -1.27475e-07 0.250001 0 -1.27354e-07 0.250001 0 -1.27256e-07 0.250001 0 -1.2718e-07 0.250001 0 -1.27127e-07 0.250001 0 -1.27097e-07 0.250001 0 -1.27089e-07 0.250001 0 -1.27104e-07 0.250001 0 -1.27141e-07 0.250001 0 3.25715e-07 0.25 0 2.74601e-07 0.25 0 2.26205e-07 0.25 0 1.80542e-07 0.25 0 1.37625e-07 0.25 0 9.74694e-08 0.25 0 6.00873e-08 0.25 0 2.54923e-08 0.25 0 -6.30317e-09 0.25 0 -3.52867e-08 0.250001 0 -6.14465e-08 0.250001 0 -8.47711e-08 0.250001 0 -1.05249e-07 0.250001 0 -1.22871e-07 0.250001 0 -1.37625e-07 0.250001 0 -1.49503e-07 0.250001 0 -1.58495e-07 0.250001 0 -1.64591e-07 0.250001 0 -1.67784e-07 0.250001 0 -1.68066e-07 0.250001 0 -1.65428e-07 0.250001 0 -1.66887e-07 0.250001 0 -1.68151e-07 0.250001 0 -1.69219e-07 0.250001 0 -1.70092e-07 0.250001 0 -1.70768e-07 0.250001 0 -1.71248e-07 0.250001 0 -1.7153e-07 0.250001 0 -1.71614e-07 0.250001 0 -1.715e-07 0.250001 0 -1.71187e-07 0.250001 0 -1.70676e-07 0.250001 0 -1.69966e-07 0.250001 0 -1.69057e-07 0.250001 0 -1.67948e-07 0.250001 0 -1.66639e-07 0.250001 0 -1.6513e-07 0.250001 0 -1.63422e-07 0.250001 0 -1.61513e-07 0.250001 0 -1.59404e-07 0.250001 0 -1.57096e-07 0.250001 0 -1.56073e-07 0.250001 0 -1.55057e-07 0.250001 0 -1.54048e-07 0.250001 0 -1.53047e-07 0.250001 0 -1.52052e-07 0.250001 0 -1.51065e-07 0.250001 0 -1.50086e-07 0.250001 0 -1.49114e-07 0.250001 0 -1.48149e-07 0.250001 0 -1.47192e-07 0.250001 0 -1.46243e-07 0.250001 0 -1.45302e-07 0.250001 0 -1.44368e-07 0.250001 0 -1.43443e-07 0.250001 0 -1.42525e-07 0.250001 0 -1.41616e-07 0.250001 0 -1.40715e-07 0.250001 0 -1.39822e-07 0.250001 0 -1.38938e-07 0.250001 0 -1.38062e-07 0.250001 0 -1.37168e-07 0.250001 0 -1.36308e-07 0.250001 0 -1.3548e-07 0.250001 0 -1.34686e-07 0.250001 0 -1.33924e-07 0.250001 0 -1.33196e-07 0.250001 0 -1.32