<?xml version="1.0"?> 
<VTKFile type="StructuredGrid" version="0.1"> 
<StructuredGrid WholeExtent="0 99 0 99 0 0"> 
<Piece Extent="0 99 0 99 0 0"> 
<PointData Vectors="Mechanisum">
<DataArray type="Float32" Name="Mechanisum" format="ascii" NumberOfComponents="3"> 
6.82252e-12 3.69729e-11 0 -9.48563e-08 -1.18324e-06 0 -2.14498e-07 -1.83476e-06 0 -3.55231e-07 -2.08114e-06 0 -5.13369e-07 -2.049e-06 0 -6.85226e-07 -1.86494e-06 0 -8.67115e-07 -1.65557e-06 0 -1.05535e-06 -1.54753e-06 0 -1.24624e-06 -1.6674e-06 0 -1.43611e-06 -2.14182e-06 0 -1.62127e-06 -3.09739e-06 0 -1.79802e-06 -4.66073e-06 0 -1.96269e-06 -6.95845e-06 0 -2.11663e-06 -1.01172e-05 0 -2.32981e-06 -1.42633e-05 0 -2.7216e-06 -1.9523e-05 0 -3.41247e-06 -2.60227e-05 0 -4.52289e-06 -3.38886e-05 0 -6.17334e-06 -4.32471e-05 0 -8.48428e-06 -5.42242e-05 0 -1.15762e-05 -6.69464e-05 0 -1.55695e-05 -8.154e-05 0 -2.05848e-05 -9.81311e-05 0 -2.67424e-05 -0.000116846 0 -3.41629e-05 -0.000137811 0 -4.29788e-05 -0.000161218 0 -5.478e-05 -0.000195173 0 -7.39876e-05 -0.000263151 0 -0.000105347 -0.000390396 0 -0.000153606 -0.000602149 0 -0.000223509 -0.000923653 0 -0.000319802 -0.00138015 0 -0.000447232 -0.00199688 0 -0.000610545 -0.00279909 0 -0.000814486 -0.00381202 0 -0.0010638 -0.00506091 0 -0.00136324 -0.00657101 0 -0.00171754 -0.00836755 0 -0.00213192 -0.0104758 0 -0.00261427 -0.0129207 0 -0.00317347 -0.0157273 0 -0.00381839 -0.0189206 0 -0.00455791 -0.0225256 0 -0.0054009 -0.0265673 0 -0.00635624 -0.0310707 0 -0.0074328 -0.0360607 0 -0.00863945 -0.0415625 0 -0.00998508 -0.0476008 0 -0.0114786 -0.0542008 0 -0.0131288 -0.0613875 0 -0.0149441 -0.0691844 0 -0.0169216 -0.0775818 0 -0.0190471 -0.0865371 0 -0.0213061 -0.0960061 0 -0.0236838 -0.105944 0 -0.0261655 -0.116308 0 -0.0287366 -0.127053 0 -0.0313825 -0.138135 0 -0.0340885 -0.149509 0 -0.0368399 -0.161132 0 -0.0396221 -0.172959 0 -0.0424203 -0.184946 0 -0.04522 -0.197049 0 -0.047997 -0.209231 0 -0.0507006 -0.221475 0 -0.0532759 -0.233765 0 -0.0556678 -0.246089 0 -0.0578212 -0.258432 0 -0.0596813 -0.270779 0 -0.0611928 -0.283117 0 -0.0623007 -0.295432 0 -0.0629501 -0.307709 0 -0.0630858 -0.319934 0 -0.0626529 -0.332094 0 -0.0615963 -0.344174 0 -0.0598666 -0.35616 0 -0.0574644 -0.368053 0 -0.0544156 -0.379854 0 -0.0507466 -0.391569 0 -0.0464836 -0.403202 0 -0.0416529 -0.414756 0 -0.0362808 -0.426236 0 -0.0303935 -0.437645 0 -0.0240174 -0.448989 0 -0.0171787 -0.46027 0 -0.00990373 -0.471493 0 -0.00221869 -0.482661 0 0.00585002 -0.49378 0 0.0142722 -0.504853 0 0.0230121 -0.515885 0 0.0320339 -0.52688 0 0.0413014 -0.537844 0 0.0507788 -0.548781 0 0.0604299 -0.559695 0 0.0702187 -0.570592 0 0.0801093 -0.581476 0 0.0900656 -0.592351 0 0.100052 -0.603223 0 0.110031 -0.614096 0 0.119969 -0.624975 0 -2.72182e-13 2.98205e-11 0 -2.17583e-07 -1.07877e-06 0 -4.07406e-07 -1.68686e-06 0 -5.73529e-07 -1.93953e-06 0 -7.20012e-07 -1.95206e-06 0 -8.50916e-07 -1.83975e-06 0 -9.703e-07 -1.71788e-06 0 -1.08223e-06 -1.70175e-06 0 -1.19075e-06 -1.90664e-06 0 -1.29994e-06 -2.44785e-06 0 -1.41385e-06 -3.44066e-06 0 -1.53654e-06 -5.00036e-06 0 -1.67207e-06 -7.24225e-06 0 -1.82945e-06 -1.02837e-05 0 -2.08491e-06 -1.42706e-05 0 -2.56313e-06 -1.93694e-05 0 -3.38982e-06 -2.57468e-05 0 -4.69074e-06 -3.35698e-05 0 -6.59161e-06 -4.30053e-05 0 -9.21818e-06 -5.422e-05 0 -1.26962e-05 -6.73809e-05 0 -1.71514e-05 -8.26547e-05 0 -2.27094e-05 -0.000100208 0 -2.94962e-05 -0.000120209 0 -3.76373e-05 -0.000142823 0 -4.72705e-05 -0.000168283 0 -5.99843e-05 -0.000204798 0 -8.01851e-05 -0.000276063 0 -0.000112603 -0.000407556 0 -0.000161968 -0.000624752 0 -0.000233009 -0.000953128 0 -0.000330458 -0.00141816 0 -0.000459043 -0.00204532 0 -0.000623496 -0.0028601 0 -0.000828545 -0.00388795 0 -0.00107892 -0.00515437 0 -0.00137936 -0.00668483 0 -0.00173458 -0.0085048 0 -0.00214983 -0.0106397 0 -0.00263335 -0.0131142 0 -0.00319446 -0.0159529 0 -0.00384248 -0.0191805 0 -0.00458675 -0.0228214 0 -0.00543658 -0.0269003 0 -0.00640129 -0.0314416 0 -0.00749022 -0.0364701 0 -0.00871269 -0.0420101 0 -0.010078 -0.0480863 0 -0.0115955 -0.0547233 0 -0.0132746 -0.0619456 0 -0.0151239 -0.0697764 0 -0.0171397 -0.0782057 0 -0.0193056 -0.0871906 0 -0.0216048 -0.0966865 0 -0.0240203 -0.106649 0 -0.0265352 -0.117034 0 -0.0291326 -0.127797 0 -0.0317956 -0.138894 0 -0.0345073 -0.150279 0 -0.0372508 -0.161909 0 -0.0400092 -0.17374 0 -0.0427656 -0.185726 0 -0.045503 -0.197824 0 -0.048196 -0.209996 0 -0.0507953 -0.222225 0 -0.0532478 -0.234498 0 -0.0555 -0.2468 0 -0.0574989 -0.259118 0 -0.0591911 -0.271438 0 -0.0605233 -0.283746 0 -0.0614423 -0.296029 0 -0.0618949 -0.308272 0 -0.0618277 -0.320463 0 -0.0611876 -0.332587 0 -0.0599212 -0.344631 0 -0.0579811 -0.356581 0 -0.0553693 -0.368437 0 -0.0521138 -0.380204 0 -0.0482426 -0.391884 0 -0.0437837 -0.403482 0 -0.0387651 -0.415004 0 -0.0332149 -0.426452 0 -0.0271611 -0.437832 0 -0.0206318 -0.449147 0 -0.0136549 -0.460402 0 -0.00625857 -0.471601 0 0.00152923 -0.482749 0 0.00968039 -0.493849 0 0.0181642 -0.504907 0 0.0269465 -0.515926 0 0.0359927 -0.526911 0 0.0452682 -0.537866 0 0.0547387 -0.548796 0 0.0643694 -0.559706 0 0.074126 -0.570599 0 0.0839738 -0.58148 0 0.0938784 -0.592353 0 0.103805 -0.603224 0 0.11372 -0.614096 0 0.123588 -0.624974 0 -8.18422e-12 2.70542e-11 0 -3.08978e-07 -9.7103e-07 0 -5.4837e-07 -1.53439e-06 0 -7.28757e-07 -1.79362e-06 0 -8.60708e-07 -1.85228e-06 0 -9.54793e-07 -1.81393e-06 0 -1.02158e-06 -1.78214e-06 0 -1.07165e-06 -1.86047e-06 0 -1.11556e-06 -2.15248e-06 0 -1.16388e-06 -2.76173e-06 0 -1.2272e-06 -3.79179e-06 0 -1.31607e-06 -5.34622e-06 0 -1.44106e-06 -7.52858e-06 0 -1.61753e-06 -1.04467e-05 0 -1.92568e-06 -1.42658e-05 0 -2.49245e-06 -1.91929e-05 0 -3.44582e-06 -2.54356e-05 0 -4.91377e-06 -3.32016e-05 0 -7.02428e-06 -4.26986e-05 0 -9.90531e-06 -5.41345e-05 0 -1.36848e-05 -6.77169e-05 0 -1.84909e-05 -8.36535e-05 0 -2.44514e-05 -0.000102152 0 -3.16943e-05 -0.00012342 0 -4.03476e-05 -0.000147666 0 -5.05513e-05 -0.000175163 0 -6.38977e-05 -0.000214224 0 -8.47997e-05 -0.000288769 0 -0.000117994 -0.000424513 0 -0.000168218 -0.000647171 0 -0.000240208 -0.000982459 0 -0.000338701 -0.00145609 0 -0.000468434 -0.00209378 0 -0.000634144 -0.00292124 0 -0.000840569 -0.00396419 0 -0.00109244 -0.00524835 0 -0.00139451 -0.00679942 0 -0.00175149 -0.00864313 0 -0.0021687 -0.010805 0 -0.00265466 -0.0133095 0 -0.00321908 -0.0161809 0 -0.00387168 -0.0194431 0 -0.00462217 -0.0231204 0 -0.00548026 -0.0272368 0 -0.00645566 -0.0318164 0 -0.00755809 -0.0368835 0 -0.00879725 -0.042462 0 -0.0101829 -0.0485761 0 -0.0117246 -0.05525 0 -0.0134323 -0.0625078 0 -0.0153149 -0.0703721 0 -0.0173678 -0.0788327 0 -0.0195725 -0.0878464 0 -0.0219097 -0.0973687 0 -0.0243603 -0.107355 0 -0.0269053 -0.11776 0 -0.0295254 -0.12854 0 -0.0322015 -0.139651 0 -0.0349144 -0.151046 0 -0.0376451 -0.162683 0 -0.0403743 -0.174516 0 -0.043083 -0.1865 0 -0.0457519 -0.198592 0 -0.0483544 -0.210753 0 -0.0508426 -0.222968 0 -0.0531653 -0.235222 0 -0.055271 -0.247502 0 -0.0571084 -0.259794 0 -0.0586263 -0.272087 0 -0.0597731 -0.284365 0 -0.0604977 -0.296616 0 -0.0607486 -0.308826 0 -0.0604746 -0.320982 0 -0.0596241 -0.33307 0 -0.058146 -0.345078 0 -0.0559946 -0.356992 0 -0.0531738 -0.368812 0 -0.0497131 -0.380543 0 -0.0456421 -0.392188 0 -0.0409907 -0.403753 0 -0.0357884 -0.415241 0 -0.0300649 -0.426658 0 -0.02385 -0.438008 0 -0.0171733 -0.449296 0 -0.0100646 -0.460525 0 -0.00255346 -0.471701 0 0.00533037 -0.482829 0 0.0135572 -0.493911 0 0.0220959 -0.504954 0 0.0309139 -0.515961 0 0.0399781 -0.526937 0 0.0492557 -0.537885 0 0.0587137 -0.548809 0 0.0683193 -0.559714 0 0.0780394 -0.570604 0 0.0878412 -0.581484 0 0.0976918 -0.592356 0 0.107558 -0.603225 0 0.117408 -0.614096 0 0.127207 -0.624972 0 -1.6682e-11 2.80895e-11 0 -3.72306e-07 -8.61231e-07 0 -6.42922e-07 -1.37924e-06 0 -8.27806e-07 -1.64551e-06 0 -9.42901e-07 -1.75157e-06 0 -1.00415e-06 -1.78894e-06 0 -1.0275e-06 -1.84914e-06 0 -1.02889e-06 -2.02369e-06 0 -1.02426e-06 -2.40412e-06 0 -1.02956e-06 -3.08195e-06 0 -1.06073e-06 -4.1487e-06 0 -1.13371e-06 -5.69588e-06 0 -1.26445e-06 -7.81503e-06 0 -1.47343e-06 -1.06041e-05 0 -1.84285e-06 -1.42479e-05 0 -2.49937e-06 -1.89943e-05 0 -3.57065e-06 -2.50921e-05 0 -5.18433e-06 -3.27904e-05 0 -7.46805e-06 -4.23383e-05 0 -1.05495e-05 -5.39847e-05 0 -1.45562e-05 -6.79787e-05 0 -1.96159e-05 -8.45693e-05 0 -2.58563e-05 -0.000104006 0 -3.3405e-05 -0.000126536 0 -4.23896e-05 -0.000152411 0 -5.29498e-05 -0.000181945 0 -6.66868e-05 -0.000223556 0 -8.80398e-05 -0.000301392 0 -0.000121774 -0.000441411 0 -0.000172655 -0.000669571 0 -0.000245449 -0.00101183 0 -0.000344919 -0.00149414 0 -0.000475833 -0.00214246 0 -0.000642955 -0.00298275 0 -0.000851051 -0.00404097 0 -0.00110489 -0.00534307 0 -0.00140922 -0.00691501 0 -0.00176883 -0.00878274 0 -0.00218907 -0.010972 0 -0.00267871 -0.0135069 0 -0.00324781 -0.0164112 0 -0.0039064 -0.0197085 0 -0.00466452 -0.0234224 0 -0.0055322 -0.0275767 0 -0.00651948 -0.032195 0 -0.00763641 -0.0373009 0 -0.00889301 -0.042918 0 -0.0102993 -0.0490702 0 -0.0118654 -0.0557809 0 -0.0136013 -0.0630739 0 -0.0155163 -0.0709713 0 -0.0176048 -0.0794627 0 -0.0198462 -0.0885046 0 -0.022219 -0.0980524 0 -0.0247018 -0.108061 0 -0.0272734 -0.118486 0 -0.0299122 -0.129282 0 -0.0325971 -0.140405 0 -0.0353065 -0.15181 0 -0.0380192 -0.163452 0 -0.0407137 -0.175287 0 -0.0433688 -0.187268 0 -0.045963 -0.199353 0 -0.0484683 -0.211503 0 -0.0508386 -0.223702 0 -0.0530246 -0.235937 0 -0.0549769 -0.248194 0 -0.0566464 -0.260462 0 -0.0579836 -0.272726 0 -0.0589393 -0.284974 0 -0.0594642 -0.297193 0 -0.059509 -0.309369 0 -0.0590244 -0.321491 0 -0.057961 -0.333543 0 -0.0562696 -0.345515 0 -0.0539066 -0.357393 0 -0.0508776 -0.369177 0 -0.0472136 -0.380872 0 -0.0429459 -0.392482 0 -0.0381056 -0.404013 0 -0.0327241 -0.415469 0 -0.0268326 -0.426855 0 -0.0204623 -0.438176 0 -0.0136444 -0.449436 0 -0.00641025 -0.46064 0 0.00120902 -0.471793 0 0.00918213 -0.482901 0 0.0174778 -0.493967 0 0.0260649 -0.504996 0 0.0349122 -0.515992 0 0.0439884 -0.526959 0 0.0532624 -0.5379 0 0.0627029 -0.54882 0 0.0722787 -0.559722 0 0.0819585 -0.57061 0 0.0917113 -0.581487 0 0.101506 -0.592358 0 0.111311 -0.603226 0 0.121095 -0.614096 0 0.130827 -0.62497 0 -2.55339e-11 3.2342e-11 0 -4.10837e-07 -7.50592e-07 0 -6.96591e-07 -1.22327e-06 0 -8.77567e-07 -1.49726e-06 0 -9.7404e-07 -1.65181e-06 0 -1.00629e-06 -1.76618e-06 0 -9.94589e-07 -1.91962e-06 0 -9.59219e-07 -2.1914e-06 0 -9.20455e-07 -2.66076e-06 0 -8.98575e-07 -3.40697e-06 0 -9.13856e-07 -4.50927e-06 0 -9.86574e-07 -6.04693e-06 0 -1.13701e-06 -8.09919e-06 0 -1.3897e-06 -1.07539e-05 0 -1.82717e-06 -1.42159e-05 0 -2.57369e-06 -1.87742e-05 0 -3.75447e-06 -2.47196e-05 0 -5.49471e-06 -3.23431e-05 0 -7.91963e-06 -4.19355e-05 0 -1.11544e-05 -5.37878e-05 0 -1.53243e-05 -6.81908e-05 0 -2.05544e-05 -8.54353e-05 0 -2.69701e-05 -0.000105812 0 -3.46964e-05 -0.000129613 0 -4.38586e-05 -0.000157128 0 -5.45942e-05 -0.000188715 0 -6.85179e-05 -0.000232898 0 -9.01141e-05 -0.000314058 0 -0.000124197 -0.000458396 0 -0.000175579 -0.000692115 0 -0.000249076 -0.00104142 0 -0.000349502 -0.00153251 0 -0.000481669 -0.00219158 0 -0.000650392 -0.00304485 0 -0.000860486 -0.00411851 0 -0.00111676 -0.00543876 0 -0.00142404 -0.00703182 0 -0.00178713 -0.00892387 0 -0.00221145 -0.0111408 0 -0.00270602 -0.0137065 0 -0.00328112 -0.0166441 0 -0.00394707 -0.0199768 0 -0.00471415 -0.0237278 0 -0.00559266 -0.0279203 0 -0.00659292 -0.0325774 0 -0.00772521 -0.0377223 0 -0.00899983 -0.0433782 0 -0.0104271 -0.0495683 0 -0.0120173 -0.0563157 0 -0.0137807 -0.0636437 0 -0.015727 -0.0715739 0 -0.0178494 -0.0800956 0 -0.0201252 -0.0891651 0 -0.0225308 -0.0987376 0 -0.0250425 -0.108768 0 -0.0276369 -0.119212 0 -0.0302904 -0.130023 0 -0.0329794 -0.141158 0 -0.0356803 -0.152571 0 -0.0383696 -0.164218 0 -0.0410237 -0.176052 0 -0.0436191 -0.188031 0 -0.0461322 -0.200107 0 -0.0485337 -0.212245 0 -0.0507794 -0.224428 0 -0.052822 -0.236643 0 -0.0546143 -0.248878 0 -0.0561094 -0.26112 0 -0.0572599 -0.273356 0 -0.0580189 -0.285573 0 -0.0583392 -0.297759 0 -0.0581737 -0.309902 0 -0.0574752 -0.321988 0 -0.0561966 -0.334005 0 -0.0542909 -0.34594 0 -0.0517163 -0.357783 0 -0.0484804 -0.369531 0 -0.0446156 -0.38119 0 -0.0401544 -0.392766 0 -0.0351296 -0.404263 0 -0.0295738 -0.415687 0 -0.0235198 -0.427042 0 -0.0170001 -0.438334 0 -0.0100474 -0.449567 0 -0.00269438 -0.460747 0 0.00502627 -0.471878 0 0.0130819 -0.482966 0 0.0214399 -0.494016 0 0.0300689 -0.505033 0 0.0389393 -0.516019 0 0.0480217 -0.526978 0 0.0572867 -0.537913 0 0.0667049 -0.548829 0 0.0762467 -0.559728 0 0.0858828 -0.570614 0 0.0955838 -0.58149 0 0.10532 -0.59236 0 0.115062 -0.603227 0 0.124781 -0.614095 0 0.134447 -0.624967 0 -3.45083e-11 3.92271e-11 0 -4.27835e-07 -6.4033e-07 0 -7.14911e-07 -1.06837e-06 0 -8.84932e-07 -1.35095e-06 0 -9.61571e-07 -1.5549e-06 0 -9.685e-07 -1.74709e-06 0 -9.2939e-07 -1.99437e-06 0 -8.67912e-07 -2.36359e-06 0 -8.07738e-07 -2.9216e-06 0 -7.7254e-07 -3.73526e-06 0 -7.8599e-07 -4.87141e-06 0 -8.71759e-07 -6.39692e-06 0 -1.05352e-06 -8.37863e-06 0 -1.3589e-06 -1.08942e-05 0 -1.86938e-06 -1.41688e-05 0 -2.70519e-06 -1.85333e-05 0 -3.98745e-06 -2.43212e-05 0 -5.83726e-06 -3.18662e-05 0 -8.37573e-06 -4.15015e-05 0 -1.1724e-05 -5.35607e-05 0 -1.60031e-05 -6.83772e-05 0 -2.13342e-05 -8.62845e-05 0 -2.78384e-05 -0.000107616 0 -3.56368e-05 -0.000132705 0 -4.48504e-05 -0.000161886 0 -5.56129e-05 -0.000195559 0 -6.95577e-05 -0.000242356 0 -9.12311e-05 -0.000326889 0 -0.000125514 -0.00047561 0 -0.000177289 -0.000714967 0 -0.000251436 -0.00107141 0 -0.000352836 -0.00157139 0 -0.00048637 -0.00224136 0 -0.000656921 -0.00310776 0 -0.000869368 -0.00419704 0 -0.00112859 -0.00553566 0 -0.00143948 -0.00715007 0 -0.0018069 -0.00906671 0 -0.00223638 -0.0113116 0 -0.00273707 -0.0139084 0 -0.00331947 -0.0168796 0 -0.00399408 -0.0202481 0 -0.0047714 -0.0240365 0 -0.00566191 -0.0282674 0 -0.00667612 -0.0329636 0 -0.00782452 -0.0381477 0 -0.00911761 -0.0438424 0 -0.0105659 -0.0500705 0 -0.0121798 -0.0568545 0 -0.0139699 -0.0642172 0 -0.015946 -0.0721798 0 -0.0181003 -0.0807312 0 -0.020408 -0.0898277 0 -0.0228432 -0.0994242 0 -0.0253803 -0.109476 0 -0.0279935 -0.119937 0 -0.0306571 -0.130763 0 -0.0333453 -0.141909 0 -0.0360325 -0.153329 0 -0.0386929 -0.164979 0 -0.0413007 -0.176813 0 -0.0438302 -0.188787 0 -0.0462557 -0.200855 0 -0.0485469 -0.21298 0 -0.0506612 -0.225146 0 -0.0525536 -0.237341 0 -0.0541795 -0.249552 0 -0.0554939 -0.261767 0 -0.056452 -0.273974 0 -0.057009 -0.286161 0 -0.0571201 -0.298315 0 -0.0567405 -0.310423 0 -0.0558252 -0.322474 0 -0.0543295 -0.334455 0 -0.0522086 -0.346355 0 -0.0494231 -0.358161 0 -0.045982 -0.369873 0 -0.0419191 -0.381498 0 -0.0372683 -0.393039 0 -0.0320636 -0.404503 0 -0.0263388 -0.415895 0 -0.0201281 -0.42722 0 -0.0134653 -0.438483 0 -0.00638446 -0.44969 0 0.00108053 -0.460846 0 0.0088957 -0.471956 0 0.0170271 -0.483026 0 0.0254408 -0.494061 0 0.0341054 -0.505065 0 0.042993 -0.516041 0 0.0520762 -0.526993 0 0.0613273 -0.537923 0 0.0707186 -0.548836 0 0.0802226 -0.559733 0 0.0898117 -0.570617 0 0.0994583 -0.581493 0 0.109135 -0.592362 0 0.118814 -0.603229 0 0.128467 -0.614095 0 0.138068 -0.624965 0 -4.33736e-11 4.81604e-11 0 -4.26569e-07 -5.31659e-07 0 -7.0341e-07 -9.16426e-07 0 -8.56793e-07 -1.20866e-06 0 -9.12941e-07 -1.46275e-06 0 -8.98081e-07 -1.73311e-06 0 -8.38438e-07 -2.07415e-06 0 -7.60237e-07 -2.54025e-06 0 -6.89704e-07 -3.18583e-06 0 -6.53065e-07 -4.06529e-06 0 -6.76544e-07 -5.23302e-06 0 -7.86367e-07 -6.74344e-06 0 -1.00876e-06 -8.65094e-06 0 -1.37359e-06 -1.10231e-05 0 -1.96022e-06 -1.41054e-05 0 -2.88367e-06 -1.82722e-05 0 -4.25976e-06 -2.39002e-05 0 -6.20429e-06 -3.13663e-05 0 -8.83307e-06 -4.10474e-05 0 -1.22619e-05 -5.33205e-05 0 -1.66066e-05 -6.85624e-05 0 -2.19831e-05 -8.715e-05 0 -2.8507e-05 -0.00010946 0 -3.62942e-05 -0.00013587 0 -4.54605e-05 -0.000166756 0 -5.61344e-05 -0.000202564 0 -6.99725e-05 -0.000252034 0 -9.15995e-05 -0.000340012 0 -0.000125981 -0.000493199 0 -0.000178083 -0.000738291 0 -0.00025287 -0.00110199 0 -0.00035531 -0.00161099 0 -0.000490366 -0.00229199 0 -0.000663005 -0.0031717 0 -0.000878193 -0.0042768 0 -0.0011409 -0.005634 0 -0.00145608 -0.00727 0 -0.0018287 -0.00921149 0 -0.00226438 -0.0114847 0 -0.00277238 -0.0141128 0 -0.00336334 -0.017118 0 -0.00404787 -0.0205225 0 -0.00483662 -0.0243485 0 -0.0057402 -0.0286181 0 -0.00676924 -0.0333536 0 -0.00793436 -0.038577 0 -0.0092462 -0.0443106 0 -0.0107154 -0.0505766 0 -0.0123525 -0.0573971 0 -0.0141682 -0.0647943 0 -0.0161724 -0.0727889 0 -0.0183563 -0.0813696 0 -0.020693 -0.0904924 0 -0.0231545 -0.100112 0 -0.025713 -0.110184 0 -0.0283407 -0.120662 0 -0.0310096 -0.131501 0 -0.033692 -0.142657 0 -0.0363599 -0.154083 0 -0.0389855 -0.165736 0 -0.0415408 -0.177569 0 -0.0439982 -0.189537 0 -0.0463296 -0.201595 0 -0.0485039 -0.213707 0 -0.0504801 -0.225855 0 -0.0522159 -0.238029 0 -0.0536688 -0.250216 0 -0.0547966 -0.262404 0 -0.0555567 -0.274582 0 -0.0559067 -0.286737 0 -0.0558043 -0.298858 0 -0.055207 -0.310932 0 -0.0540724 -0.322948 0 -0.0523581 -0.334894 0 -0.0500217 -0.346757 0 -0.0470262 -0.358527 0 -0.0433822 -0.370204 0 -0.0391245 -0.381794 0 -0.0342882 -0.393301 0 -0.0289086 -0.404733 0 -0.0230206 -0.416093 0 -0.0166594 -0.427389 0 -0.00986018 -0.438624 0 -0.002658 -0.449805 0 0.00491201 -0.460938 0 0.0128147 -0.472028 0 0.021015 -0.48308 0 0.0294779 -0.4941 0 0.038172 -0.505092 0 0.0470713 -0.51606 0 0.05615 -0.527006 0 0.0653825 -0.537932 0 0.0747429 -0.548841 0 0.0842055 -0.559736 0 0.0937447 -0.57062 0 0.103335 -0.581495 0 0.11295 -0.592364 0 0.122564 -0.60323 0 0.132152 -0.614095 0 0.141689 -0.624962 0 -5.18983e-11 5.85573e-11 0 -4.10305e-07 -4.25797e-07 0 -6.67622e-07 -7.69304e-07 0 -8.0004e-07 -1.07246e-06 0 -8.35596e-07 -1.37725e-06 0 -8.02328e-07 -1.72567e-06 0 -7.28272e-07 -2.15971e-06 0 -6.41467e-07 -2.72138e-06 0 -5.6995e-07 -3.45265e-06 0 -5.41758e-07 -4.39553e-06 0 -5.84929e-07 -5.592e-06 0 -7.275e-07 -7.08406e-06 0 -9.97509e-07 -8.9137e-06 0 -1.42632e-06 -1.11384e-05 0 -2.09044e-06 -1.4025e-05 0 -3.09894e-06 -1.79916e-05 0 -4.56157e-06 -2.34595e-05 0 -6.58812e-06 -3.08501e-05 0 -9.28835e-06 -4.05845e-05 0 -1.2772e-05 -5.30843e-05 0 -1.7149e-05 -6.87706e-05 0 -2.25289e-05 -8.80649e-05 0 -2.90216e-05 -0.000111388 0 -3.67368e-05 -0.000139162 0 -4.57844e-05 -0.000171808 0 -5.6287e-05 -0.000209817 0 -6.99289e-05 -0.000262036 0 -9.14278e-05 -0.00035355 0 -0.00012585 -0.000511306 0 -0.00017826 -0.000762252 0 -0.000253725 -0.00113334 0 -0.000357312 -0.00165151 0 -0.000494084 -0.00234371 0 -0.00066911 -0.0032369 0 -0.000887454 -0.00435802 0 -0.00115418 -0.00573401 0 -0.00147436 -0.00739183 0 -0.00185306 -0.00935843 0 -0.00229597 -0.0116602 0 -0.00281244 -0.0143199 0 -0.00341317 -0.0173594 0 -0.00410885 -0.0208002 0 -0.00491016 -0.0246641 0 -0.00582779 -0.0289726 0 -0.00687243 -0.0337474 0 -0.00805476 -0.0390103 0 -0.00938548 -0.0447828 0 -0.0108753 -0.0510866 0 -0.0125348 -0.0579434 0 -0.0143748 -0.0653748 0 -0.0164051 -0.0734011 0 -0.0186161 -0.0820104 0 -0.0209786 -0.091159 0 -0.0234627 -0.100801 0 -0.0260385 -0.110892 0 -0.028676 -0.121386 0 -0.0313452 -0.132238 0 -0.0340162 -0.143403 0 -0.0366591 -0.154835 0 -0.0392439 -0.166489 0 -0.0417406 -0.178319 0 -0.0441194 -0.190281 0 -0.0463502 -0.202329 0 -0.0484007 -0.214426 0 -0.0502322 -0.226556 0 -0.0518049 -0.238708 0 -0.0530787 -0.25087 0 -0.0540139 -0.263031 0 -0.0545707 -0.275178 0 -0.054709 -0.287302 0 -0.054389 -0.299389 0 -0.0535709 -0.311429 0 -0.0522148 -0.323409 0 -0.0502808 -0.335319 0 -0.047729 -0.347146 0 -0.044525 -0.358881 0 -0.0406806 -0.370523 0 -0.0362318 -0.382078 0 -0.0312148 -0.393552 0 -0.0256656 -0.404952 0 -0.0196205 -0.416282 0 -0.0131154 -0.427548 0 -0.00618668 -0.438757 0 0.0011297 -0.449913 0 0.00879755 -0.461024 0 0.0167808 -0.472093 0 0.0250432 -0.483129 0 0.0335488 -0.494135 0 0.0422666 -0.505117 0 0.051172 -0.516076 0 0.0602414 -0.527016 0 0.0694508 -0.537938 0 0.0787765 -0.548845 0 0.0881946 -0.559739 0 0.0976813 -0.570623 0 0.107213 -0.581497 0 0.116765 -0.592366 0 0.126315 -0.603231 0 0.135837 -0.614095 0 0.145309 -0.624959 0 -5.98506e-11 6.98333e-11 0 -3.82311e-07 -3.23959e-07 0 -6.13077e-07 -6.28885e-07 0 -7.21566e-07 -9.44423e-07 0 -7.36983e-07 -1.30029e-06 0 -6.88536e-07 -1.72619e-06 0 -6.0543e-07 -2.25184e-06 0 -5.16873e-07 -2.90696e-06 0 -4.52071e-07 -3.72126e-06 0 -4.40231e-07 -4.72444e-06 0 -5.10559e-07 -5.94624e-06 0 -6.92262e-07 -7.41635e-06 0 -1.01455e-06 -9.1645e-06 0 -1.50964e-06 -1.12382e-05 0 -2.25078e-06 -1.39264e-05 0 -3.34077e-06 -1.76922e-05 0 -4.88305e-06 -2.30025e-05 0 -6.98108e-06 -3.03241e-05 0 -9.73829e-06 -4.0124e-05 0 -1.32581e-05 -5.28691e-05 0 -1.76441e-05 -6.90262e-05 0 -2.29996e-05 -8.90622e-05 0 -2.9428e-05 -0.000113444 0 -3.70329e-05 -0.000142639 0 -4.59177e-05 -0.000177113 0 -5.61991e-05 -0.000217403 0 -6.95935e-05 -0.000272469 0 -9.09246e-05 -0.000367628 0 -0.000125373 -0.000530077 0 -0.00017812 -0.000787014 0 -0.000254345 -0.00116564 0 -0.00035923 -0.00169314 0 -0.000497954 -0.00239672 0 -0.0006757 -0.00330358 0 -0.000897646 -0.00444092 0 -0.00116897 -0.00583592 0 -0.00149487 -0.00751579 0 -0.0018805 -0.00950773 0 -0.00233167 -0.0118383 0 -0.00285777 -0.0145299 0 -0.00346946 -0.0176039 0 -0.00417743 -0.0210812 0 -0.00499236 -0.0249832 0 -0.00592494 -0.0293307 0 -0.00698584 -0.0341451 0 -0.00818574 -0.0394474 0 -0.00953534 -0.0452588 0 -0.0110453 -0.0516004 0 -0.0127263 -0.0584933 0 -0.0145891 -0.0659586 0 -0.0166433 -0.0740162 0 -0.0188785 -0.0826538 0 -0.0212634 -0.0918274 0 -0.0237661 -0.101492 0 -0.0263546 -0.111601 0 -0.0289969 -0.12211 0 -0.0316611 -0.132974 0 -0.0343151 -0.144147 0 -0.036927 -0.155583 0 -0.0394647 -0.167237 0 -0.0418964 -0.179065 0 -0.0441899 -0.191019 0 -0.0463134 -0.203056 0 -0.0482336 -0.215137 0 -0.0499138 -0.227247 0 -0.0513169 -0.239377 0 -0.0524055 -0.251513 0 -0.0531426 -0.263645 0 -0.0534908 -0.275763 0 -0.0534129 -0.287854 0 -0.0528717 -0.299907 0 -0.05183 -0.311912 0 -0.0502506 -0.323857 0 -0.0480961 -0.33573 0 -0.0453295 -0.347522 0 -0.0419186 -0.359221 0 -0.037877 -0.370828 0 -0.0332413 -0.38235 0 -0.0280486 -0.393792 0 -0.0223358 -0.40516 0 -0.0161399 -0.41646 0 -0.00949795 -0.427699 0 -0.00244688 -0.438881 0 0.00497633 -0.450014 0 0.0127347 -0.461103 0 0.0207912 -0.472154 0 0.0291089 -0.483173 0 0.037651 -0.494166 0 0.0463865 -0.505138 0 0.055293 -0.51609 0 0.0643484 -0.527024 0 0.0735309 -0.537943 0 0.0828184 -0.548848 0 0.0921891 -0.559741 0 0.101621 -0.570624 0 0.111092 -0.581499 0 0.120581 -0.592368 0 0.130064 -0.603233 0 0.139522 -0.614095 0 0.14893 -0.624956 0 -6.6999e-11 8.1404e-11 0 -3.45853e-07 -2.27361e-07 0 -5.45307e-07 -4.97049e-07 0 -6.28262e-07 -8.26633e-07 0 -6.24549e-07 -1.23377e-06 0 -5.64001e-07 -1.7361e-06 0 -4.76449e-07 -2.35129e-06 0 -3.91726e-07 -3.09699e-06 0 -3.39663e-07 -3.99085e-06 0 -3.50092e-07 -5.05051e-06 0 -4.52845e-07 -6.29364e-06 0 -6.77755e-07 -7.73789e-06 0 -1.05465e-06 -9.4009e-06 0 -1.61612e-06 -1.13205e-05 0 -2.43199e-06 -1.38086e-05 0 -3.59898e-06 -1.73746e-05 0 -5.21438e-06 -2.25322e-05 0 -7.37548e-06 -2.97951e-05 0 -1.01796e-05 -3.96771e-05 0 -1.3724e-05 -5.26919e-05 0 -1.8106e-05 -6.93533e-05 0 -2.34229e-05 -9.0175e-05 0 -2.9772e-05 -0.000115671 0 -3.72506e-05 -0.000146354 0 -4.5956e-05 -0.000182739 0 -5.5999e-05 -0.000225409 0 -6.91326e-05 -0.000283435 0 -9.02985e-05 -0.000382369 0 -0.000124805 -0.000549655 0 -0.000177961 -0.00081274 0 -0.000255074 -0.00119907 0 -0.000361452 -0.00173609 0 -0.000502404 -0.00245124 0 -0.000683239 -0.00337197 0 -0.000909263 -0.00452573 0 -0.00118579 -0.00593996 0 -0.00151812 -0.00764211 0 -0.00191156 -0.00965962 0 -0.00237202 -0.0120192 0 -0.00290885 -0.014743 0 -0.00353265 -0.0178516 0 -0.00425402 -0.0213657 0 -0.00508357 -0.0253059 0 -0.0060319 -0.0296926 0 -0.00710962 -0.0345466 0 -0.00832733 -0.0398884 0 -0.00969563 -0.0457387 0 -0.0112251 -0.0521179 0 -0.0129264 -0.0590467 0 -0.0148102 -0.0665457 0 -0.0168859 -0.0746341 0 -0.0191421 -0.0832994 0 -0.0215457 -0.0924976 0 -0.0240627 -0.102183 0 -0.0266591 -0.11231 0 -0.029301 -0.122834 0 -0.0319545 -0.133709 0 -0.0345855 -0.144888 0 -0.0371601 -0.156328 0 -0.0396444 -0.167982 0 -0.0420043 -0.179805 0 -0.044206 -0.191751 0 -0.0462155 -0.203775 0 -0.0479986 -0.21584 0 -0.049521 -0.22793 0 -0.0507481 -0.240035 0 -0.0516457 -0.252145 0 -0.0521791 -0.264249 0 -0.0523139 -0.276335 0 -0.0520156 -0.288393 0 -0.0512498 -0.300412 0 -0.049982 -0.312381 0 -0.0481777 -0.32429 0 -0.0458025 -0.336128 0 -0.0428219 -0.347884 0 -0.0392065 -0.359548 0 -0.0349711 -0.371121 0 -0.0301531 -0.38261 0 -0.0247902 -0.39402 0 -0.01892 -0.405358 0 -0.0125803 -0.416629 0 -0.0058087 -0.427841 0 0.00135715 -0.438998 0 0.00887958 -0.450108 0 0.0167209 -0.461177 0 0.0248435 -0.47221 0 0.0332096 -0.483214 0 0.0417818 -0.494195 0 0.0505296 -0.505157 0 0.0594321 -0.516102 0 0.0684693 -0.527032 0 0.0776211 -0.537947 0 0.0868674 -0.54885 0 0.0961881 -0.559743 0 0.105563 -0.570626 0 0.114973 -0.581501 0 0.124396 -0.59237 0 0.133814 -0.603234 0 0.143205 -0.614095 0 0.152551 -0.624954 0 -7.31119e-11 9.26848e-11 0 -3.04197e-07 -1.37221e-07 0 -4.69842e-07 -3.75673e-07 0 -5.27019e-07 -7.21162e-07 0 -5.05741e-07 -1.17959e-06 0 -4.36019e-07 -1.75685e-06 0 -3.47867e-07 -2.45884e-06 0 -2.71297e-07 -3.29146e-06 0 -2.36321e-07 -4.26062e-06 0 -2.72952e-07 -5.3722e-06 0 -4.11201e-07 -6.63211e-06 0 -6.81081e-07 -8.04625e-06 0 -1.1126e-06 -9.62051e-06 0 -1.7383e-06 -1.13834e-05 0 -2.6248e-06 -1.36707e-05 0 -3.86335e-06 -1.70395e-05 0 -5.54571e-06 -2.20518e-05 0 -7.76366e-06 -2.92696e-05 0 -1.0609e-05 -3.9255e-05 0 -1.41734e-05 -5.25699e-05 0 -1.85488e-05 -6.97763e-05 0 -2.38268e-05 -9.14363e-05 0 -3.00993e-05 -0.000118112 0 -3.74581e-05 -0.000150365 0 -4.59948e-05 -0.000188758 0 -5.58153e-05 -0.000233923 0 -6.87128e-05 -0.000295041 0 -8.97581e-05 -0.000397898 0 -0.000124399 -0.000570185 0 -0.000178082 -0.000839594 0 -0.000256256 -0.00123382 0 -0.000364367 -0.00178055 0 -0.000507863 -0.00250747 0 -0.000692192 -0.00344229 0 -0.000922801 -0.00461269 0 -0.00120514 -0.00604637 0 -0.00154465 -0.00777101 0 -0.00194678 -0.0098143 0 -0.00241754 -0.0122031 0 -0.0029662 -0.0149592 0 -0.00360322 -0.0181028 0 -0.00433904 -0.0216538 0 -0.00518413 -0.0256323 0 -0.00614894 -0.0300583 0 -0.00724393 -0.034952 0 -0.00847954 -0.0403333 0 -0.00986624 -0.0462223 0 -0.0114145 -0.052639 0 -0.0131347 -0.0596035 0 -0.0150374 -0.0671358 0 -0.017132 -0.0752547 0 -0.0194059 -0.0839473 0 -0.0218241 -0.0931695 0 -0.0243507 -0.102876 0 -0.02695 -0.11302 0 -0.0295859 -0.123557 0 -0.0322227 -0.134442 0 -0.0348245 -0.145628 0 -0.0373554 -0.15707 0 -0.0397795 -0.168723 0 -0.0420609 -0.18054 0 -0.0441639 -0.192477 0 -0.0460524 -0.204487 0 -0.0476918 -0.216534 0 -0.0490498 -0.228603 0 -0.0500949 -0.240684 0 -0.0507955 -0.252766 0 -0.0511199 -0.26484 0 -0.0510367 -0.276894 0 -0.0505141 -0.288918 0 -0.0495205 -0.300902 0 -0.0480245 -0.312836 0 -0.0459943 -0.324709 0 -0.0433984 -0.336511 0 -0.0402052 -0.348231 0 -0.036388 -0.359861 0 -0.0319627 -0.3714 0 -0.0269674 -0.382857 0 -0.0214403 -0.394236 0 -0.0154194 -0.405544 0 -0.00894311 -0.416788 0 -0.00204945 -0.427974 0 0.00522336 -0.439108 0 0.0128372 -0.450196 0 0.0207538 -0.461245 0 0.028935 -0.472262 0 0.0373427 -0.483251 0 0.0459389 -0.494221 0 0.0546934 -0.505174 0 0.0635873 -0.516112 0 0.0726022 -0.527038 0 0.08172 -0.53795 0 0.0909223 -0.548852 0 0.100191 -0.559744 0 0.109507 -0.570627 0 0.118854 -0.581502 0 0.128212 -0.592371 0 0.137563 -0.603235 0 0.146889 -0.614094 0 0.156172 -0.624951 0 -7.79577e-11 1.03091e-10 0 -2.60613e-07 -5.47533e-08 0 -3.92214e-07 -2.66635e-07 0 -4.24729e-07 -6.30084e-07 0 -3.88004e-07 -1.13964e-06 0 -3.11887e-07 -1.78985e-06 0 -2.26223e-07 -2.57524e-06 0 -1.60859e-07 -3.49037e-06 0 -1.45642e-07 -4.52977e-06 0 -2.1042e-07 -5.68798e-06 0 -3.85037e-07 -6.95954e-06 0 -6.99342e-07 -8.339e-06 0 -1.18318e-06 -9.82089e-06 0 -1.86874e-06 -1.14249e-05 0 -2.81996e-06 -1.35116e-05 0 -4.12368e-06 -1.66876e-05 0 -5.86722e-06 -2.15645e-05 0 -8.13793e-06 -2.87543e-05 0 -1.10231e-05 -3.88689e-05 0 -1.46102e-05 -5.252e-05 0 -1.89864e-05 -7.03195e-05 0 -2.42391e-05 -9.28793e-05 0 -3.04557e-05 -0.000120811 0 -3.77234e-05 -0.000154727 0 -4.61297e-05 -0.000195239 0 -5.57762e-05 -0.000243029 0 -6.85005e-05 -0.000307391 0 -8.9512e-05 -0.00041434 0 -0.000124407 -0.000591811 0 -0.000178783 -0.000867741 0 -0.000258236 -0.00127007 0 -0.000368363 -0.00182672 0 -0.00051476 -0.00256564 0 -0.000703024 -0.00351476 0 -0.000938752 -0.00470203 0 -0.00122754 -0.00615536 0 -0.00157499 -0.00790271 0 -0.00198668 -0.009972 0 -0.00246875 -0.0123902 0 -0.00303032 -0.0151789 0 -0.00368163 -0.0183575 0 -0.00443291 -0.0219455 0 -0.0052944 -0.0259625 0 -0.00627632 -0.0304279 0 -0.00738891 -0.0353612 0 -0.00864241 -0.0407819 0 -0.010047 -0.0467096 0 -0.0116131 -0.0531636 0 -0.0133507 -0.0601636 0 -0.0152701 -0.067729 0 -0.0173806 -0.0758779 0 -0.0196685 -0.0845973 0 -0.022097 -0.0938429 0 -0.0246284 -0.103569 0 -0.027225 -0.11373 0 -0.0298491 -0.12428 0 -0.032463 -0.135174 0 -0.035029 -0.146365 0 -0.0375094 -0.157809 0 -0.0398664 -0.169459 0 -0.0420624 -0.18127 0 -0.0440597 -0.193196 0 -0.0458205 -0.205192 0 -0.0473093 -0.217221 0 -0.0484965 -0.229267 0 -0.0493534 -0.241322 0 -0.0498513 -0.253376 0 -0.0499618 -0.265419 0 -0.049656 -0.27744 0 -0.0489054 -0.28943 0 -0.0476814 -0.301378 0 -0.0459553 -0.313276 0 -0.0436985 -0.325113 0 -0.0408823 -0.336879 0 -0.0374782 -0.348563 0 -0.0334622 -0.360159 0 -0.0288515 -0.371666 0 -0.0236844 -0.383091 0 -0.0179994 -0.39444 0 -0.011835 -0.40572 0 -0.00522969 -0.416938 0 0.00177804 -0.428099 0 0.00914968 -0.43921 0 0.0168467 -0.450278 0 0.0248307 -0.461309 0 0.0330632 -0.47231 0 0.0415055 -0.483286 0 0.0501195 -0.494245 0 0.0588756 -0.50519 0 0.0677564 -0.516122 0 0.0767454 -0.527043 0 0.085826 -0.537953 0 0.0949819 -0.548853 0 0.104196 -0.559744 0 0.113453 -0.570627 0 0.122736 -0.581503 0 0.132027 -0.592372 0 0.141311 -0.603235 0 0.150572 -0.614094 0 0.159792 -0.624949 0 -8.13047e-11 1.12039e-10 0 -2.18365e-07 1.8825e-08 0 -3.17954e-07 -1.71815e-07 0 -3.28284e-07 -5.55477e-07 0 -2.78787e-07 -1.11583e-06 0 -1.98899e-07 -1.83654e-06 0 -1.18052e-07 -2.70127e-06 0 -6.56