<?xml version="1.0"?> 
<VTKFile type="StructuredGrid" version="0.1"> 
<StructuredGrid WholeExtent="0 99 0 99 0 0"> 
<Piece Extent="0 99 0 99 0 0"> 
<PointData Vectors="Mechanisum">
<DataArray type="Float32" Name="Mechanisum" format="ascii" NumberOfComponents="3"> 
-2.30997e-12 6.78572e-12 0 9.08776e-05 -0.000158229 0 0.000162713 -0.000268889 0 0.000215452 -0.00033906 0 0.000249041 -0.000375828 0 0.000263428 -0.000386272 0 0.000258559 -0.000377478 0 0.000234379 -0.000356526 0 0.000190837 -0.0003305 0 0.000127877 -0.000306482 0 4.54478e-05 -0.000291555 0 -5.65053e-05 -0.000292802 0 -0.000178036 -0.000317304 0 -0.000319196 -0.000372145 0 -0.000480041 -0.000464407 0 -0.000660623 -0.000601173 0 -0.000860996 -0.000789526 0 -0.00108121 -0.00103655 0 -0.00132133 -0.00134932 0 -0.0015814 -0.00173493 0 -0.00186147 -0.00220045 0 -0.0021616 -0.00275298 0 -0.00248184 -0.00339958 0 -0.00282224 -0.00414735 0 -0.00318287 -0.00500337 0 -0.00356376 -0.00597472 0 -0.00396499 -0.00706848 0 -0.00438659 -0.00829173 0 -0.00482862 -0.00965156 0 -0.00529114 -0.0111551 0 -0.0057742 -0.0128093 0 -0.00627785 -0.0146214 0 -0.00680214 -0.0165983 0 -0.00734714 -0.0187473 0 -0.00791289 -0.0210753 0 -0.00849945 -0.0235895 0 -0.00910686 -0.0262969 0 -0.00973519 -0.0292047 0 -0.0103845 -0.0323198 0 -0.0110548 -0.0356495 0 -0.0117462 -0.0392007 0 -0.0124587 -0.0429805 0 -0.0131924 -0.0469961 0 -0.0139473 -0.0512545 0 -0.0147236 -0.0557628 0 -0.0155211 -0.0605281 0 -0.0163401 -0.0655575 0 -0.0171805 -0.070858 0 -0.0180424 -0.0764367 0 -0.0189259 -0.0823008 0 -0.0198307 -0.0884569 0 -0.020752 -0.0949055 0 -0.0216799 -0.10164 0 -0.0226045 -0.108654 0 -0.0235158 -0.115942 0 -0.0244037 -0.123496 0 -0.0252582 -0.131309 0 -0.0260695 -0.139377 0 -0.0268274 -0.147691 0 -0.0275221 -0.156245 0 -0.0281434 -0.165034 0 -0.0286814 -0.174049 0 -0.0291262 -0.183286 0 -0.0294677 -0.192737 0 -0.0296959 -0.202395 0 -0.0298008 -0.212254 0 -0.0297724 -0.222309 0 -0.0296008 -0.232551 0 -0.029276 -0.242974 0 -0.0287879 -0.253573 0 -0.0281266 -0.26434 0 -0.027282 -0.27527 0 -0.0262443 -0.286354 0 -0.0250033 -0.297587 0 -0.0235491 -0.308963 0 -0.0218717 -0.320475 0 -0.0199611 -0.332115 0 -0.0178073 -0.343879 0 -0.0154003 -0.355758 0 -0.0127302 -0.367748 0 -0.00978684 -0.37984 0 -0.00656036 -0.392029 0 -0.00304073 -0.404308 0 0.000782053 -0.41667 0 0.00491798 -0.429109 0 0.00937704 -0.441619 0 0.0141692 -0.454193 0 0.0193045 -0.466824 0 0.024793 -0.479506 0 0.0306445 -0.492232 0 0.0368692 -0.504995 0 0.0434769 -0.51779 0 0.0504777 -0.53061 0 0.0578816 -0.543448 0 0.0656986 -0.556297 0 0.0739387 -0.569151 0 0.0826118 -0.582004 0 0.091728 -0.594849 0 0.101297 -0.607679 0 0.11133 -0.620488 0 -2.47565e-12 5.95487e-12 0 9.63719e-05 -0.000158262 0 0.000172507 -0.000269544 0 0.000228426 -0.000340911 0 0.000264145 -0.000379425 0 0.000279685 -0.000392151 0 0.000275064 -0.000386155 0 0.0002503 -0.000368498 0 0.000205414 -0.000346246 0 0.000140423 -0.000326464 0 5.53472e-05 -0.000316214 0 -4.97955e-05 -0.000322561 0 -0.000174986 -0.00035257 0 -0.000320205 -0.000413305 0 -0.000485434 -0.000511829 0 -0.000670655 -0.000655206 0 -0.000875847 -0.000850502 0 -0.00110099 -0.00110478 0 -0.00134607 -0.0014251 0 -0.00161107 -0.00181854 0 -0.00189596 -0.00229215 0 -0.00220073 -0.00285299 0 -0.00252536 -0.00350815 0 -0.00286983 -0.00426466 0 -0.00323413 -0.00512961 0 -0.00361822 -0.00611006 0 -0.0040221 -0.00721306 0 -0.00444574 -0.00844569 0 -0.00488913 -0.009815 0 -0.00535224 -0.0113281 0 -0.00583507 -0.012992 0 -0.00633758 -0.0148137 0 -0.00685976 -0.0168004 0 -0.0074016 -0.0189591 0 -0.00796307 -0.0212969 0 -0.00854415 -0.0238209 0 -0.00914483 -0.026538 0 -0.00976508 -0.0294554 0 -0.0104049 -0.0325801 0 -0.0110642 -0.0359192 0 -0.0117431 -0.0394798 0 -0.0124415 -0.0432689 0 -0.0131593 -0.0472935 0 -0.0138966 -0.0515609 0 -0.0146534 -0.0560779 0 -0.0154296 -0.0608517 0 -0.0162252 -0.0658894 0 -0.0170401 -0.071198 0 -0.0178745 -0.0767845 0 -0.0187282 -0.0826561 0 -0.019601 -0.0888195 0 -0.020488 -0.0952749 0 -0.0213793 -0.102016 0 -0.022265 -0.109037 0 -0.0231352 -0.11633 0 -0.0239799 -0.123889 0 -0.0247891 -0.131708 0 -0.0255529 -0.13978 0 -0.0262613 -0.148099 0 -0.0269043 -0.156657 0 -0.027472 -0.165449 0 -0.0279544 -0.174468 0 -0.0283416 -0.183707 0 -0.0286235 -0.193159 0 -0.0287903 -0.202819 0 -0.028832 -0.21268 0 -0.0287385 -0.222734 0 -0.0285 -0.232976 0 -0.0281065 -0.243399 0 -0.027548 -0.253997 0 -0.0268145 -0.264762 0 -0.0258961 -0.275689 0 -0.0247829 -0.28677 0 -0.0234648 -0.298 0 -0.0219319 -0.309371 0 -0.0201742 -0.320878 0 -0.0181819 -0.332513 0 -0.0159448 -0.34427 0 -0.0134531 -0.356142 0 -0.0106968 -0.368124 0 -0.00766589 -0.380207 0 -0.00435046 -0.392387 0 -0.000740538 -0.404655 0 0.00317385 -0.417007 0 0.00740266 -0.429435 0 0.0119559 -0.441932 0 0.0168434 -0.454492 0 0.0220753 -0.467109 0 0.0276614 -0.479775 0 0.0336118 -0.492485 0 0.0399363 -0.505232 0 0.0466451 -0.518009 0 0.0537479 -0.53081 0 0.0612549 -0.543628 0 0.0691758 -0.556457 0 0.0775208 -0.56929 0 0.0862998 -0.58212 0 0.0955227 -0.594941 0 0.1052 -0.607747 0 0.11534 -0.62053 0 -2.63068e-12 5.1681e-12 0 0.000102113 -0.000157934 0 0.000182657 -0.00026953 0 0.000241731 -0.000341832 0 0.000279434 -0.000381882 0 0.000295865 -0.000396725 0 0.000291122 -0.000393403 0 0.000265304 -0.000378962 0 0.00021851 -0.000360443 0 0.000150839 -0.000344892 0 6.23892e-05 -0.000339351 0 -4.67406e-05 -0.000350863 0 -0.000176452 -0.000386474 0 -0.000326645 -0.000453225 0 -0.000497222 -0.000558161 0 -0.000688083 -0.000708326 0 -0.000899131 -0.000910762 0 -0.00113027 -0.00117251 0 -0.00138139 -0.00150062 0 -0.0016524 -0.00190214 0 -0.00194321 -0.0023841 0 -0.00225371 -0.00295355 0 -0.0025838 -0.00361753 0 -0.00293338 -0.00438309 0 -0.00330236 -0.00525727 0 -0.00369064 -0.00624712 0 -0.00409812 -0.00735967 0 -0.0045247 -0.00860197 0 -0.00497028 -0.00998107 0 -0.00543476 -0.011504 0 -0.00591804 -0.0131778 0 -0.00642003 -0.0150096 0 -0.00694063 -0.0170063 0 -0.00747973 -0.019175 0 -0.00803724 -0.0215228 0 -0.00861306 -0.0240567 0 -0.0092071 -0.0267837 0 -0.00981924 -0.0297109 0 -0.0104494 -0.0328454 0 -0.0110975 -0.0361941 0 -0.0117634 -0.0397641 0 -0.012447 -0.0435625 0 -0.0131482 -0.0475963 0 -0.0138669 -0.0518726 0 -0.0146031 -0.0563983 0 -0.0153566 -0.0611806 0 -0.0161273 -0.0662265 0 -0.0169151 -0.0715429 0 -0.01772 -0.0771371 0 -0.0185418 -0.0830159 0 -0.0193802 -0.0891863 0 -0.0202302 -0.0956483 0 -0.0210822 -0.102396 0 -0.0219261 -0.109422 0 -0.0227522 -0.116721 0 -0.0235504 -0.124285 0 -0.0243108 -0.132109 0 -0.0250236 -0.140185 0 -0.0256789 -0.148507 0 -0.0262667 -0.157069 0 -0.0267771 -0.165864 0 -0.0272002 -0.174885 0 -0.0275261 -0.184125 0 -0.0277448 -0.193579 0 -0.0278466 -0.20324 0 -0.0278213 -0.213101 0 -0.0276593 -0.223155 0 -0.0273504 -0.233397 0 -0.0268849 -0.243819 0 -0.0262528 -0.254414 0 -0.0254441 -0.265177 0 -0.0244491 -0.276101 0 -0.0232577 -0.287179 0 -0.0218601 -0.298404 0 -0.0202463 -0.309771 0 -0.0184064 -0.321272 0 -0.0163306 -0.332901 0 -0.0140089 -0.344651 0 -0.0114314 -0.356516 0 -0.00858812 -0.36849 0 -0.00546925 -0.380565 0 -0.00206484 -0.392735 0 0.00163502 -0.404994 0 0.00564025 -0.417334 0 0.00996076 -0.42975 0 0.0146065 -0.442235 0 0.0195873 -0.454782 0 0.0249131 -0.467385 0 0.0305938 -0.480037 0 0.0366394 -0.492732 0 0.0430597 -0.505463 0 0.0498647 -0.518223 0 0.0570642 -0.531006 0 0.0646683 -0.543806 0 0.0726867 -0.556615 0 0.0811295 -0.569428 0 0.0900065 -0.582237 0 0.0993276 -0.595036 0 0.109103 -0.607819 0 0.119342 -0.620579 0 -2.77526e-12 4.42445e-12 0 0.00010807 -0.000157256 0 0.000193112 -0.000268866 0 0.000255311 -0.00034185 0 0.000294852 -0.00038323 0 0.000311922 -0.000400026 0 0.000306707 -0.000399259 0 0.000279391 -0.000387951 0 0.000230161 -0.000373122 0 0.000159203 -0.000361794 0 6.67019e-05 -0.000360987 0 -4.7156e-05 -0.000377723 0 -0.000182185 -0.000419021 0 -0.0003382 -0.000491905 0 -0.000515014 -0.000603393 0 -0.000712443 -0.000760508 0 -0.000930299 -0.00097027 0 -0.0011684 -0.0012397 0 -0.00142655 -0.00157582 0 -0.00170458 -0.00198565 0 -0.00200229 -0.00247621 0 -0.0023195 -0.00305452 0 -0.00265603 -0.00372761 0 -0.00301168 -0.00450249 0 -0.00338628 -0.00538619 0 -0.00377963 -0.00638572 0 -0.00419155 -0.00750811 0 -0.00462186 -0.00876038 0 -0.00507037 -0.0101495 0 -0.00553689 -0.0116826 0 -0.00602124 -0.0133667 0 -0.00652323 -0.0152087 0 -0.00704267 -0.0172156 0 -0.00757939 -0.0193946 0 -0.00813319 -0.0217526 0 -0.00870389 -0.0242967 0 -0.00929131 -0.0270338 0 -0.00989525 -0.029971 0 -0.0105155 -0.0331153 0 -0.011152 -0.0364737 0 -0.0118044 -0.0400533 0 -0.0124726 -0.0438611 0 -0.0131564 -0.047904 0 -0.0138556 -0.0521892 0 -0.01457 -0.0567236 0 -0.0152995 -0.0615143 0 -0.0160438 -0.0665682 0 -0.0168028 -0.0718925 0 -0.0175763 -0.077494 0 -0.0183641 -0.0833799 0 -0.0191658 -0.0895569 0 -0.0199764 -0.0960252 0 -0.0207862 -0.102778 0 -0.0215855 -0.10981 0 -0.0223643 -0.117114 0 -0.0231129 -0.124683 0 -0.0238213 -0.13251 0 -0.0244798 -0.14059 0 -0.0250785 -0.148916 0 -0.0256075 -0.15748 0 -0.0260571 -0.166277 0 -0.0264173 -0.1753 0 -0.0266783 -0.184542 0 -0.0268304 -0.193997 0 -0.0268635 -0.203658 0 -0.026768 -0.213518 0 -0.0265339 -0.223572 0 -0.0261515 -0.233812 0 -0.0256108 -0.244232 0 -0.024902 -0.254826 0 -0.0240154 -0.265586 0 -0.0229409 -0.276506 0 -0.0216689 -0.28758 0 -0.0201894 -0.298801 0 -0.0184927 -0.310162 0 -0.0165688 -0.321657 0 -0.0144079 -0.33328 0 -0.0120002 -0.345024 0 -0.00933591 -0.356881 0 -0.00640507 -0.368846 0 -0.00319789 -0.380913 0 0.000295471 -0.393073 0 0.00408486 -0.405322 0 0.00818013 -0.417652 0 0.0125911 -0.430057 0 0.0173276 -0.44253 0 0.0223996 -0.455065 0 0.0278168 -0.467654 0 0.033589 -0.480293 0 0.0397262 -0.492973 0 0.0462382 -0.505688 0 0.0531348 -0.518432 0 0.0604258 -0.531199 0 0.0681211 -0.543981 0 0.0762306 -0.556772 0 0.0847641 -0.569566 0 0.0937314 -0.582355 0 0.103142 -0.595134 0 0.113007 -0.607896 0 0.123335 -0.620634 0 -2.9096e-12 3.72299e-12 0 0.000114215 -0.000156239 0 0.000203824 -0.000267571 0 0.000269107 -0.000340992 0 0.000310342 -0.000383499 0 0.00032781 -0.000402089 0 0.00032179 -0.000403757 0 0.000292561 -0.0003955 0 0.000240402 -0.000384315 0 0.000165593 -0.000377198 0 6.84136e-05 -0.000381146 0 -5.08573e-05 -0.000403155 0 -0.00019194 -0.000450221 0 -0.000354555 -0.000529341 0 -0.000538424 -0.000647511 0 -0.000743266 -0.000811729 0 -0.000968803 -0.00102899 0 -0.00121475 -0.00130629 0 -0.00148084 -0.00165063 0 -0.00176678 -0.00206899 0 -0.00207231 -0.00256839 0 -0.00239712 -0.00315582 0 -0.00274096 -0.00383826 0 -0.00310353 -0.00462273 0 -0.00348457 -0.00551621 0 -0.00388378 -0.0065257 0 -0.00430089 -0.00765819 0 -0.00473563 -0.0089207 0 -0.0051877 -0.0103202 0 -0.00565684 -0.0118637 0 -0.00614276 -0.0135582 0 -0.00664519 -0.0154107 0 -0.00716384 -0.0174281 0 -0.00769843 -0.0196176 0 -0.00824869 -0.021986 0 -0.00881433 -0.0245404 0 -0.00939509 -0.0272878 0 -0.00999066 -0.0302352 0 -0.0106008 -0.0333895 0 -0.0112252 -0.0367578 0 -0.0118636 -0.040347 0 -0.0125157 -0.0441642 0 -0.0131812 -0.0482163 0 -0.0138599 -0.0525104 0 -0.0145514 -0.0570534 0 -0.0152555 -0.0618524 0 -0.015972 -0.0669143 0 -0.0167005 -0.0722462 0 -0.0174407 -0.0778549 0 -0.0181924 -0.0837476 0 -0.0189551 -0.089931 0 -0.0197238 -0.0964052 0 -0.0204889 -0.103164 0 -0.0212407 -0.110201 0 -0.0219694 -0.117509 0 -0.0226652 -0.125082 0 -0.0233185 -0.132913 0 -0.0239194 -0.140996 0 -0.0244582 -0.149324 0 -0.0249251 -0.157891 0 -0.0253104 -0.166689 0 -0.0256043 -0.175713 0 -0.0257971 -0.184956 0 -0.025879 -0.194411 0 -0.0258403 -0.204072 0 -0.0256711 -0.213932 0 -0.0253618 -0.223984 0 -0.0249026 -0.234222 0 -0.0242838 -0.24464 0 -0.0234955 -0.255231 0 -0.022528 -0.265987 0 -0.0213717 -0.276904 0 -0.0200166 -0.287973 0 -0.0184531 -0.299189 0 -0.0166714 -0.310545 0 -0.0146617 -0.322034 0 -0.0124144 -0.33365 0 -0.00991957 -0.345387 0 -0.00716753 -0.357237 0 -0.00414852 -0.369194 0 -0.000852786 -0.381251 0 0.00272943 -0.393403 0 0.00660789 -0.405641 0 0.0107923 -0.417961 0 0.0152925 -0.430355 0 0.0201182 -0.442816 0 0.0252792 -0.455339 0 0.0307852 -0.467916 0 0.0366459 -0.48054 0 0.0428712 -0.493207 0 0.0494708 -0.505908 0 0.0564543 -0.518637 0 0.0638317 -0.531387 0 0.0716127 -0.544153 0 0.0798069 -0.556928 0 0.0884242 -0.569704 0 0.0974743 -0.582475 0 0.106967 -0.595235 0 0.116912 -0.607978 0 0.127319 -0.620696 0 -3.0339e-12 3.06277e-12 0 0.000120517 -0.000154894 0 0.000214744 -0.000265665 0 0.000283062 -0.000339284 0 0.000325848 -0.000382722 0 0.000343483 -0.000402948 0 0.000336345 -0.000406931 0 0.000304813 -0.000401643 0 0.000249268 -0.000394054 0 0.000170088 -0.000391132 0 6.76524e-05 -0.000399849 0 -5.76597e-05 -0.000427175 0 -0.000205469 -0.000480079 0 -0.000375396 -0.000565532 0 -0.000567062 -0.000690504 0 -0.000780088 -0.000861964 0 -0.00101409 -0.00108688 0 -0.0012687 -0.00137223 0 -0.00154353 -0.00172498 0 -0.0018382 -0.00215209 0 -0.00215234 -0.00266055 0 -0.00248555 -0.00325731 0 -0.00283748 -0.00394936 0 -0.00320773 -0.00474365 0 -0.00359592 -0.00564716 0 -0.00400169 -0.00666686 0 -0.00442464 -0.00780973 0 -0.0048644 -0.00908272 0 -0.00532059 -0.0104928 0 -0.00579283 -0.012047 0 -0.00628074 -0.0137522 0 -0.00678395 -0.0156154 0 -0.00730206 -0.0176436 0 -0.00783471 -0.0198437 0 -0.00838152 -0.0222228 0 -0.0089421 -0.0247877 0 -0.00951607 -0.0275455 0 -0.0101031 -0.0305032 0 -0.0107027 -0.0336676 0 -0.0113146 -0.0370458 0 -0.0119383 -0.0406448 0 -0.0125736 -0.0444714 0 -0.01322 -0.0485328 0 -0.0138771 -0.0528358 0 -0.0145446 -0.0573874 0 -0.0152221 -0.0621946 0 -0.0159092 -0.0672643 0 -0.0166055 -0.0726036 0 -0.0173106 -0.0782194 0 -0.0180242 -0.0841187 0 -0.0187457 -0.0903081 0 -0.0194701 -0.0967879 0 -0.0201879 -0.103552 0 -0.0208895 -0.110593 0 -0.0215652 -0.117905 0 -0.0222054 -0.125482 0 -0.0228004 -0.133316 0 -0.0233405 -0.141402 0 -0.0238162 -0.149732 0 -0.0242177 -0.1583 0 -0.0245355 -0.1671 0 -0.0247598 -0.176125 0 -0.0248811 -0.185368 0 -0.0248896 -0.194822 0 -0.0247757 -0.204482 0 -0.0245298 -0.214341 0 -0.0241422 -0.224391 0 -0.0236033 -0.234627 0 -0.0229034 -0.245042 0 -0.0220329 -0.255629 0 -0.020982 -0.266382 0 -0.0197413 -0.277294 0 -0.0183009 -0.288359 0 -0.0166513 -0.29957 0 -0.0147828 -0.31092 0 -0.0126858 -0.322403 0 -0.0103506 -0.334012 0 -0.00776757 -0.345741 0 -0.00492704 -0.357583 0 -0.00181936 -0.369532 0 0.0015651 -0.381581 0 0.00523601 -0.393723 0 0.00920301 -0.405952 0 0.0134757 -0.418261 0 0.0180639 -0.430644 0 0.0229771 -0.443094 0 0.0282249 -0.455605 0 0.0338171 -0.46817 0 0.0397633 -0.480782 0 0.0460732 -0.493434 0 0.0527563 -0.506122 0 0.0598224 -0.518837 0 0.0672811 -0.531572 0 0.075142 -0.544323 0 0.0834149 -0.557081 0 0.0921092 -0.569841 0 0.101235 -0.582596 0 0.110801 -0.595339 0 0.120818 -0.608064 0 0.131295 -0.620763 0 -3.14835e-12 2.44284e-12 0 0.000126946 -0.000153231 0 0.000225824 -0.000263168 0 0.000297117 -0.000336753 0 0.000341312 -0.000380929 0 0.000358892 -0.000402636 0 0.000350343 -0.000408817 0 0.000316149 -0.000406414 0 0.000256795 -0.000402369 0 0.000172766 -0.000403624 0 6.45464e-05 -0.00041712 0 -6.73789e-05 -0.000449799 0 -0.000222525 -0.000508604 0 -0.000400407 -0.000600476 0 -0.000600541 -0.000732358 0 -0.000822441 -0.00091119 0 -0.00106562 -0.00114392 0 -0.0013296 -0.00143748 0 -0.00161389 -0.00179881 0 -0.00191801 -0.00223487 0 -0.00224147 -0.00275259 0 -0.00258379 -0.00335891 0 -0.00294449 -0.00406077 0 -0.00332307 -0.00486512 0 -0.00371905 -0.0057789 0 -0.00413195 -0.00680905 0 -0.00456129 -0.00796251 0 -0.00500658 -0.00924623 0 -0.00546733 -0.0106671 0 -0.00594306 -0.0122322 0 -0.00643329 -0.0139483 0 -0.00693752 -0.0158225 0 -0.00745528 -0.0178616 0 -0.00798609 -0.0200726 0 -0.00852945 -0.0224625 0 -0.00908487 -0.0250381 0 -0.00965189 -0.0278065 0 -0.01023 -0.0307746 0 -0.0108187 -0.0339493 0 -0.0114176 -0.0373375 0 -0.0120261 -0.0409462 0 -0.0126438 -0.0447824 0 -0.0132702 -0.048853 0 -0.0139047 -0.0531649 0 -0.014547 -0.057725 0 -0.0151964 -0.0625404 0 -0.0158526 -0.0676179 0 -0.0165151 -0.0729645 0 -0.0171834 -0.0785871 0 -0.0178569 -0.0844927 0 -0.018535 -0.090688 0 -0.0192128 -0.0971731 0 -0.0198808 -0.103942 0 -0.0205295 -0.110987 0 -0.0211494 -0.118303 0 -0.0217311 -0.125883 0 -0.0222648 -0.13372 0 -0.0227412 -0.141808 0 -0.0231507 -0.15014 0 -0.0234838 -0.158709 0 -0.0237308 -0.167509 0 -0.0238824 -0.176534 0 -0.023929 -0.185777 0 -0.023861 -0.19523 0 -0.0236689 -0.204889 0 -0.0233432 -0.214746 0 -0.0228744 -0.224794 0 -0.0222529 -0.235027 0 -0.0214692 -0.245438 0 -0.0205138 -0.256022 0 -0.0193772 -0.26677 0 -0.0180497 -0.277678 0 -0.0165219 -0.288737 0 -0.0147843 -0.299942 0 -0.0128274 -0.311286 0 -0.0106415 -0.322763 0 -0.00821721 -0.334365 0 -0.00554496 -0.346086 0 -0.00261523 -0.357921 0 0.000581518 -0.369861 0 0.00405481 -0.381901 0 0.00781417 -0.394034 0 0.0118691 -0.406253 0 0.0162292 -0.418552 0 0.020904 -0.430925 0 0.0259029 -0.443364 0 0.0312355 -0.455863 0 0.0369114 -0.468416 0 0.0429401 -0.481016 0 0.049331 -0.493656 0 0.0560938 -0.50633 0 0.063238 -0.519032 0 0.070773 -0.531754 0 0.0787085 -0.54449 0 0.0870539 -0.557234 0 0.0958187 -0.569979 0 0.105013 -0.582718 0 0.114645 -0.595445 0 0.124725 -0.608154 0 0.135264 -0.620837 0 -3.25315e-12 1.86226e-12 0 0.000133473 -0.000151262 0 0.000237013 -0.0002601 0 0.000311216 -0.000333425 0 0.000356678 -0.000378151 0 0.000373993 -0.000401188 0 0.000363758 -0.00040945 0 0.000326568 -0.000409848 0 0.000263018 -0.000409294 0 0.000173705 -0.0004147 0 5.92237e-05 -0.000432979 0 -7.98302e-05 -0.000471042 0 -0.000242861 -0.000535802 0 -0.000429273 -0.000634171 0 -0.000638471 -0.000773061 0 -0.00086986 -0.000959384 0 -0.00112284 -0.00120005 0 -0.00139682 -0.00150198 0 -0.00169121 -0.00187207 0 -0.0020054 -0.00231725 0 -0.00233881 -0.00284441 0 -0.00269083 -0.00346049 0 -0.00306088 -0.00417238 0 -0.00344834 -0.004987 0 -0.00385264 -0.00591127 0 -0.00427318 -0.00695208 0 -0.00470935 -0.00811637 0 -0.00516056 -0.00941103 0 -0.00562623 -0.010843 0 -0.00610574 -0.0124191 0 -0.00659852 -0.0141464 0 -0.00710395 -0.0160317 0 -0.00762145 -0.0180819 0 -0.00815041 -0.020304 0 -0.00869026 -0.0227049 0 -0.00924038 -0.0252914 0 -0.00980018 -0.0280705 0 -0.0103691 -0.0310491 0 -0.0109465 -0.0342341 0 -0.0115317 -0.0376325 0 -0.0121243 -0.041251 0 -0.0127236 -0.0450968 0 -0.013329 -0.0491766 0 -0.0139399 -0.0534973 0 -0.0145557 -0.058066 0 -0.0151759 -0.0628894 0 -0.0157997 -0.0679745 0 -0.0164268 -0.0733283 0 -0.0170563 -0.0789576 0 -0.0176878 -0.0848693 0 -0.0183204 -0.0910702 0 -0.0189492 -0.0975602 0 -0.019565 -0.104333 0 -0.0201584 -0.111383 0 -0.0207199 -0.118702 0 -0.0212402 -0.126285 0 -0.0217099 -0.134124 0 -0.0221196 -0.142213 0 -0.0224599 -0.150546 0 -0.0227215 -0.159116 0 -0.0228948 -0.167917 0 -0.0229707 -0.176941 0 -0.0229395 -0.186183 0 -0.0227921 -0.195635 0 -0.0225188 -0.205292 0 -0.0221105 -0.215146 0 -0.0215577 -0.225191 0 -0.0208509 -0.235421 0 -0.0199809 -0.245829 0 -0.0189381 -0.256408 0 -0.0177133 -0.267152 0 -0.016297 -0.278054 0 -0.0146798 -0.289108 0 -0.0128524 -0.300307 0 -0.0108054 -0.311645 0 -0.0085293 -0.323114 0 -0.00601478 -0.334709 0 -0.00325245 -0.346423 0 -0.000232914 -0.358249 0 0.00305323 -0.370181 0 0.00661536 -0.382212 0 0.0104629 -0.394336 0 0.0146052 -0.406546 0 0.0190516 -0.418835 0 0.0238116 -0.431197 0 0.0288946 -0.443626 0 0.0343098 -0.456114 0 0.0400669 -0.468656 0 0.046175 -0.481244 0 0.0526437 -0.493872 0 0.0594822 -0.506534 0 0.0667001 -0.519223 0 0.0743066 -0.531932 0 0.0823112 -0.544655 0 0.0907233 -0.557385 0 0.0995522 -0.570116 0 0.108807 -0.582841 0 0.118498 -0.595554 0 0.128634 -0.608248 0 0.139224 -0.620916 0 -3.3485e-12 1.32008e-12 0 0.000140068 -0.000148998 0 0.000248264 -0.00025648 0 0.000325301 -0.000329327 0 0.000371888 -0.000374419 0 0.000388738 -0.000398638 0 0.000376561 -0.000408864 0 0.000336069 -0.000411977 0 0.000267973 -0.000414859 0 0.000172984 -0.000424389 0 5.18126e-05 -0.000447449 0 -9.4829e-05 -0.00049092 0 -0.00026623 -0.000561682 0 -0.000461679 -0.000666615 0 -0.000680465 -0.000812601 0 -0.000921877 -0.00100652 0 -0.0011852 -0.00125525 0 -0.00146973 -0.00156568 0 -0.00177476 -0.00194468 0 -0.00209956 -0.00239914 0 -0.00244343 -0.00293594 0 -0.00280566 -0.00356195 0 -0.00318554 -0.00428406 0 -0.00358236 -0.00510915 0 -0.0039954 -0.0060441 0 -0.00442395 -0.00709578 0 -0.00486731 -0.00827109 0 -0.00532476 -0.0095769 0 -0.00579559 -0.0110201 0 -0.00627909 -0.0126076 0 -0.00677454 -0.0143462 0 -0.00728125 -0.0162428 0 -0.00779848 -0.0183043 0 -0.00832555 -0.0205376 0 -0.00886172 -0.0229496 0 -0.0094063 -0.0255471 0 -0.00995857 -0.0283371 0 -0.0105178 -0.0313263 0 -0.0110833 -0.0345218 0 -0.0116544 -0.0379303 0 -0.0122303 -0.0415588 0 -0.0128104 -0.0454141 0 -0.0133939 -0.0495031 0 -0.01398 -0.0538327 0 -0.0145682 -0.0584098 0 -0.0151577 -0.0632412 0 -0.0157478 -0.0683339 0 -0.0163377 -0.0736947 0 -0.0169268 -0.0793305 0 -0.0175143 -0.0852481 0 -0.0180994 -0.0914542 0 -0.0186771 -0.097949 0 -0.0192383 -0.104726 0 -0.0197737 -0.111779 0 -0.0202742 -0.119101 0 -0.0207306 -0.126686 0 -0.0211335 -0.134527 0 -0.0214737 -0.142618 0 -0.021742 -0.150952 0 -0.0219292 -0.159522 0 -0.022026 -0.168322 0 -0.0220231 -0.177345 0 -0.0219114 -0.186586 0 -0.0216816 -0.196036 0 -0.0213245 -0.205691 0 -0.0208308 -0.215542 0 -0.0201913 -0.225584 0 -0.0193967 -0.23581 0 -0.0184378 -0.246214 0 -0.0173054 -0.256788 0 -0.0159903 -0.267527 0 -0.0144831 -0.278424 0 -0.0127747 -0.289472 0 -0.0108558 -0.300665 0 -0.00871724 -0.311995 0 -0.00634968 -0.323458 0 -0.00374393 -0.335046 0 -0.000890748 -0.346752 0 0.00221911 -0.35857 0 0.00559487 -0.370493 0 0.00924578 -0.382515 0 0.0131811 -0.39463 0 0.01741 -0.40683 0 0.0219418 -0.41911 0 0.0267857 -0.431462 0 0.0319509 -0.44388 0 0.0374467 -0.456357 0 0.0432823 -0.468888 0 0.049467 -0.481465 0 0.0560099 -0.494082 0 0.0629204 -0.506732 0 0.0702076 -0.519409 0 0.0778809 -0.532106 0 0.0859494 -0.544817 0 0.0944224 -0.557535 0 0.103309 -0.570253 0 0.112619 -0.582965 0 0.122361 -0.595665 0 0.132544 -0.608345 0 0.143178 -0.621 0 -3.43461e-12 8.15362e-13 0 0.000146701 -0.000146449 0 0.000259528 -0.000252328 0 0.000339313 -0.000324485 0 0.000386887 -0.000369766 0 0.000403081 -0.00039502 0 0.000388726 -0.000407094 0 0.000344654 -0.000412837 0 0.000271695 -0.000419096 0 0.00017068 -0.000432719 0 4.24411e-05 -0.000460553 0 -0.000112191 -0.000509448 0 -0.000292385 -0.000586249 0 -0.00049731 -0.000697806 0 -0.000726135 -0.000850965 0 -0.000978028 -0.00105258 0 -0.00125216 -0.00130948 0 -0.0015477 -0.00162854 0 -0.00186381 -0.00201659 0 -0.00219966 -0.00248048 0 -0.00255443 -0.00302706 0 -0.00292728 -0.00366318 0 -0.00331739 -0.00439568 0 -0.00372391 -0.00523142 0 -0.00414602 -0.00617723 0 -0.00458288 -0.00723998 0 -0.00503368 -0.0084265 0 -0.00549756 -0.00974364 0 -0.00597372 -0.0111983 0 -0.0064613 -0.0127972 0 -0.00695949 -0.0145473 0 -0.00746744 -0.0164554 0 -0.00798434 -0.0185284 0 -0.00850934 -0.0207731 0 -0.00904162 -0.0231964 0 -0.00958035 -0.025805 0 -0.0101247 -0.0286059 0 -0.0106738 -0.0316059 0 -0.0112269 -0.0348119 0 -0.0117831 -0.0382307 0 -0.0123416 -0.0418691 0 -0.0129015 -0.045734 0 -0.0134621 -0.0498322 0 -0.0140225 -0.0541707 0 -0.0145818 -0.0587561 0 -0.0151393 -0.0635955 0 -0.0156941 -0.0686956 0 -0.0162453 -0.0740632 0 -0.0167922 -0.0797053 0 -0.0173339 -0.0856287 0 -0.0178694 -0.0918399 0 -0.0183938 -0.0983391 0 -0.0188981 -0.10512 0 -0.0193733 -0.112176 0 -0.0198103 -0.119501 0 -0.0202001 -0.127088 0 -0.0205335 -0.13493 0 -0.0208016 -0.143022 0 -0.0209951 -0.151356 0 -0.0211052 -0.159926 0 -0.0211226 -0.168725 0 -0.0210384 -0.177747 0 -0.0208434 -0.186986 0 -0.0205286 -0.196434 0 -0.0200849 -0.206085 0 -0.0195032 -0.215933 0 -0.0187745 -0.225972 0 -0.0178897 -0.236194 0 -0.0168397 -0.246593 0 -0.0156155 -0.257162 0 -0.014208 -0.267896 0 -0.0126081 -0.278787 0 -0.0108067 -0.289828 0 -0.00879481 -0.301014 0 -0.00656332 -0.312338 0 -0.00410316 -0.323794 0 -0.00140526 -0.335374 0 0.00153944 -0.347072 0 0.00474003 -0.358881 0 0.00820556 -0.370796 0 0.0119451 -0.38281 0 0.0159678 -0.394915 0 0.0202826 -0.407106 0 0.0248986 -0.419376 0 0.029825 -0.431718 0 0.0350707 -0.444126 0 0.0406448 -0.456594 0 0.0465565 -0.469114 0 0.0528148 -0.48168 0 0.0594287 -0.494286 0 0.0664073 -0.506925 0 0.0737598 -0.519591 0 0.0814951 -0.532277 0 0.0896223 -0.544976 0 0.0981506 -0.557683 0 0.107089 -0.570389 0 0.116446 -0.58309 0 0.126232 -0.595778 0 0.136455 -0.608447 0 0.147124 -0.62109 0 -3.51167e-12 3.47152e-13 0 0.000153342 -0.000143628 0 0.000270756 -0.000247665 0 0.000353196 -0.000318924 0 0.000401617 -0.00036422 0 0.000416976 -0.000390366 0 0.000400225 -0.000404175 0 0.000352321 -0.000412461 0 0.000274219 -0.000422037 0 0.000166872 -0.000439717 0 3.12374e-05 -0.000472313 0 -0.000131731 -0.000526641 0 -0.000321079 -0.000609512 0 -0.00053585 -0.000727741 0 -0.000775091 -0.000888141 0 -0.00103784 -0.00109753 0 -0.00132316 -0.00136271 0 -0.00163008 -0.0016905 0 -0.00195764 -0.00208772 0 -0.0023049 -0.00256118 0 -0.0026709 -0.00311769 0 -0.00305469 -0.00376406 0 -0.0034553 -0.00450712 0 -0.00387179 -0.00535366 0 -0.00430319 -0.00631052 0 -0.00474856 -0.00738449 0 -0.00520694 -0.00858239 0 -0.00567738 -0.00991104 0 -0.00615891 -0.0113773 0 -0.00665059 -0.0129878 0 -0.00715146 -0.0147496 0 -0.00766056 -0.0166694 0 -0.00817694 -0.018754 0 -0.00869965 -0.0210102 0 -0.00922773 -0.0234448 0 -0.00976022 -0.0260647 0 -0.0102962 -0.0288767 0 -0.0108346 -0.0318876 0 -0.0113746 -0.0351041 0 -0.0119152 -0.0385332 0 -0.0124555 -0.0421815 0 -0.0129944 -0.0460561 0 -0.0135311 -0.0501635 0 -0.0140645 -0.0545107 0 -0.0145937 -0.0591045 0 -0.0151179 -0.0639517 0 -0.0156359 -0.0690591 0 -0.0161469 -0.0744335 0 -0.0166499 -0.0800818 0 -0.0171439 -0.0860106 0 -0.0176278 -0.0922267 0 -0.0180968 -0.0987301 0 -0.018542 -0.105515 0 -0.0189547 -0.112574 0 -0.0193258 -0.119901 0 -0.0196465 -0.127489 0 -0.019908 -0.135333 0 -0.0201013 -0.143424 0 -0.0202175 -0.151758 0 -0.0202478 -0.160327 0 -0.0201832 -0.169126 0 -0.020015 -0.178146 0 -0.0197341 -0.187382 0 -0.0193317 -0.196828 0 -0.0187989 -0.206476 0 -0.0181269 -0.21632 0 -0.0173067 -0.226354 0 -0.0163294 -0.236572 0 -0.0151861 -0.246966 0 -0.0138681 -0.25753 0 -0.0123663 -0.268258 0 -0.0106718 -0.279142 0 -0.00877591 -0.290178 0 -0.00666959 -0.301357 0 -0.00434399 -0.312674 0 -0.00179021 -0.324121 0 0.00100063 -0.335694 0 0.00403742 -0.347384 0 0.00732905 -0.359185 0 0.0108844 -0.371091 0 0.0147124 -0.383096 0 0.0188219 -0.395192 0 0.0232218 -0.407374 0 0.0279209 -0.419634 0 0.0329283 -0.431967 0 0.0382527 -0.444365 0 0.0439031 -0.456823 0 0.0498883 -0.469333 0 0.0562173 -0.481889 0 0.0628988 -0.494485 0 0.0699419 -0.507114 0 0.0773554 -0.519769 0 0.0851482 -0.532445 0 0.0933292 -0.545133 0 0.101907 -0.557829 0 0.110891 -0.570526 0 0.12029 -0.583216 0 0.130113 -0.595893 0 0.140368 -0.608551 0 0.151064 -0.621184 0 -3.57988e-12 -8.5492e-14 0 0.000159962 -0.000140543 0 0.000281898 -0.000242509 0 0.000366891 -0.000312673 0 0.000416022 -0.000357815 0 0.000430375 -0.000384712 0 0.000411031 -0.000400143 0 0.000359072 -0.000410884 0 0.000275581 -0.000423714 0 0.000161639 -0.00044541 0 1.83297e-05 -0.000482751 0 -0.000153266 -0.000542514 0 -0.000352065 -0.000631478 0 -0.000576985 -0.000756419 0 -0.000826945 -0.000924117 0 -0.00110086 -0.00114135 0 -0.00139765 -0.00141489 0 -0.00171624 -0.00175152 0 -0.00205553 -0.00215802 0 -0.00241446 -0.00264117 0 -0.00279193 -0.00320773 0 -0.00318686 -0.0038645 0 -0.00359818 -0.00461825 0 -0.00402479 -0.00547575 0 -0.00446562 -0.00644379 0 -0.00491959 -0.00752914 0 -0.00538561 -0.00873858 0 -0.0058626 -0.0100789 0 -0.00634948 -0.0115568 0 -0.00684517 -0.0131792 0 -0.00734858 -0.0149528 0 -0.00785863 -0.0168844 0 -0.00837425 -0.0189807 0 -0.00889434 -0.0212485 0 -0.00941782 -0.0236947 0 -0.00994362 -0.0263259 0 -0.0104707 -0.0291491 0 -0.0109978 -0.0321708 0 -0.0115241 -0.035398 0 -0.0120483 -0.0388374 0 -0.0125694 -0.0424958 0 -0.0130864 -0.0463799 0 -0.0135981 -0.0504966 0 -0.0141034 -0.0548526 0 -0.0146014 -0.0594547 0 -0.0150908 -0.0643096 0 -0.0155706 -0.0694242 0 -0.0160397 -0.0748052 0 -0.0164971 -0.0804594 0 -0.0169417 -0.0863936 0 -0.0173722 -0.0926143 0 -0.0177837 -0.0991216 0 -0.0181677 -0.105909 0 -0.0185155 -0.112971 0 -0.0188184 -0.1203 0 -0.0190678 -0.12789 0 -0.0192548 -0.135734 0 -0.0193709 -0.143826 0 -0.0194073 -0.152159 0 -0.0193553 -0.160727 0 -0.0192063 -0.169523 0 -0.0189515 -0.178542 0 -0.0185823 -0.187775 0 -0.0180899 -0.197218 0 -0.0174657 -0.206862 0 -0.016701 -0.216703 0 -0.015787 -0.226732 0 -0.0147151 -0.236945 0 -0.0134766 -0.247333 0 -0.0120628 -0.257891 0 -0.0104649 -0.268613 0 -0.0086744 -0.279491 0 -0.00668247 -0.29052 0 -0.00448045 -0.301692 0 -0.00205964 -0.313001 0 0.000588655 -0.324441 0 0.00347312 -0.336006 0 0.00660246 -0.347688 0 0.00998536 -0.359481 0 0.0136305 -0.371378 0 0.0175466 -0.383374 0 0.0217424 -0.395461 0 0.0262265 -0.407634 0 0.0310077 -0.419885 0 0.0360945 -0.432208 0 0.0414959 -0.444597 0 0.0472203 -0.457045 0 0.0532765 -0.469546 0 0.0596733 -0.482092 0 0.0664193 -0.494678 0 0.0735231 -0.507298 0 0.0809936 -0.519943 0 0.0888394 -0.532609 0 0.0970691 -0.545288 0 0.105692 -0.557974 0 0.114715 -0.570661 0 0.124149 -0.583342 0 0.134002 -0.59601 0 0.144282 -0.608659 0 0.154998 -0.621283 0 -3.63944e-12 -4.83517e-13 0 0.00016653 -0.000137208 0 0.000292906 -0.00023688 0 0.00038034 -0.000305757 0 0.000430045 -0.000350581 0 0.000443232 -0.000378092 0 0.000421115 -0.000395031 0 0.000364906 -0.000408139 0 0.000275816 -0.000424157 0 0.000155059 -0.000449827 0 3.8461e-06 -0.000491889 0 -0.000176609 -0.000557084 0 -0.000385095 -0.000652154 0 -0.0006204 -0.000783838 0 -0.00088131 -0.000958879 0 -0.00116661 -0.00118402 0 -0.0014751 -0.00146599 0 -0.00180555 -0.00181155 0 -0.00215676 -0.00222742 0 -0.00252751 -0.00272036 0 -0.0029166 -0.0032971 0 -0.0033228 -0.00396438 0 -0.00374491 -0.00472895 0 -0.00418172 -0.00559754 0 -0.00463201 -0.00657689 0 -0.00509457 -0.00767376 0 -0.00556818 -0.00889487 0 -0.00605164 -0.010247 0 -0.00654373 -0.0117368 0 -0.00704325 -0.0133711 0 -0.00754897 -0.0151566 0 -0.00805968 -0.0171001 0 -0.00857418 -0.0192083 0 -0.00909125 -0.0214878 0 -0.00960968 -0.0239456 0 -0.0101283 -0.