<?xml version="1.0"?> 
<VTKFile type="StructuredGrid" version="0.1"> 
<StructuredGrid WholeExtent="0 200 0 200 0 0"> 
<Piece Extent="0 200 0 200 0 0"> 
<PointData Vectors="Displ">
<DataArray type="Float32" Name="Displ" format="ascii" NumberOfComponents="3"> 
1.27778e-06 -6e-05 0 -1.47694e-05 -6.1768e-05 0 -3.07274e-05 -6.4184e-05 0 -4.6597e-05 -6.72436e-05 0 -6.23789e-05 -7.09422e-05 0 -7.80738e-05 -7.52757e-05 0 -9.36823e-05 -8.02397e-05 0 -0.000109205 -8.58301e-05 0 -0.000124643 -9.20427e-05 0 -0.000139996 -9.88735e-05 0 -0.000155265 -0.000106319 0 -0.00017045 -0.000114374 0 -0.000185552 -0.000123036 0 -0.000200571 -0.000132301 0 -0.000215508 -0.000142165 0 -0.000230362 -0.000152625 0 -0.000245135 -0.000163676 0 -0.000259826 -0.000175316 0 -0.000274436 -0.000187542 0 -0.000288965 -0.000200349 0 -0.000303412 -0.000213735 0 -0.000317779 -0.000227696 0 -0.000332064 -0.00024223 0 -0.000346269 -0.000257332 0 -0.000360394 -0.000273001 0 -0.000374437 -0.000289233 0 -0.0003884 -0.000306025 0 -0.000402283 -0.000323373 0 -0.000416085 -0.000341275 0 -0.000429807 -0.000359727 0 -0.000443449 -0.000378726 0 -0.00045701 -0.000398269 0 -0.000470491 -0.000418353 0 -0.000483892 -0.000438975 0 -0.000497213 -0.00046013 0 -0.000510454 -0.000481818 0 -0.000523614 -0.000504033 0 -0.000536695 -0.000526773 0 -0.000549695 -0.000550035 0 -0.000562616 -0.000573815 0 -0.000575456 -0.000598111 0 -0.000588217 -0.000622919 0 -0.000600897 -0.000648235 0 -0.000613497 -0.000674057 0 -0.000626018 -0.000700382 0 -0.000638458 -0.000727205 0 -0.000650818 -0.000754525 0 -0.000663098 -0.000782337 0 -0.000675299 -0.000810639 0 -0.000687419 -0.000839428 0 -0.000699459 -0.000868699 0 -0.000711419 -0.000898451 0 -0.000723299 -0.000928679 0 -0.000735099 -0.000959381 0 -0.000746819 -0.000990553 0 -0.000758459 -0.00102219 0 -0.00077002 -0.0010543 0 -0.0007815 -0.00108686 0 -0.0007929 -0.00111988 0 -0.00080422 -0.00115336 0 -0.00081546 -0.00118728 0 -0.000826619 -0.00122166 0 -0.000837699 -0.00125648 0 -0.000848699 -0.00129174 0 -0.000859619 -0.00132744 0 -0.000870459 -0.00136358 0 -0.000881219 -0.00140014 0 -0.000891899 -0.00143714 0 -0.000902499 -0.00147456 0 -0.000913019 -0.0015124 0 -0.000923459 -0.00155067 0 -0.000933819 -0.00158935 0 -0.000944099 -0.00162844 0 -0.000954299 -0.00166794 0 -0.000964419 -0.00170785 0 -0.000974459 -0.00174816 0 -0.000984419 -0.00178887 0 -0.000994299 -0.00182998 0 -0.0010041 -0.00187148 0 -0.00101382 -0.00191337 0 -0.00102346 -0.00195565 0 -0.00103302 -0.00199831 0 -0.0010425 -0.00204136 0 -0.0010519 -0.00208478 0 -0.00106122 -0.00212857 0 -0.00107046 -0.00217274 0 -0.00107962 -0.00221728 0 -0.0010887 -0.00226218 0 -0.0010977 -0.00230744 0 -0.00110662 -0.00235306 0 -0.00111546 -0.00239903 0 -0.00112422 -0.00244536 0 -0.0011329 -0.00249204 0 -0.0011415 -0.00253906 0 -0.00115002 -0.00258642 0 -0.00115846 -0.00263413 0 -0.00116682 -0.00268217 0 -0.0011751 -0.00273054 0 -0.0011833 -0.00277924 0 -0.00119142 -0.00282827 0 -0.00119946 -0.00287762 0 -0.00120742 -0.00292729 0 -0.0012153 -0.00297728 0 -0.0012231 -0.00302758 0 -0.00123082 -0.00307819 0 -0.00123846 -0.00312911 0 -0.00124602 -0.00318033 0 -0.0012535 -0.00323186 0 -0.0012609 -0.00328368 0 -0.00126822 -0.00333579 0 -0.00127546 -0.0033882 0 -0.00128262 -0.0034409 0 -0.0012897 -0.00349388 0 -0.0012967 -0.00354714 0 -0.00130362 -0.00360068 0 -0.00131046 -0.00365449 0 -0.00131722 -0.00370858 0 -0.0013239 -0.00376294 0 -0.0013305 -0.00381756 0 -0.00133702 -0.00387244 0 -0.00134346 -0.00392759 0 -0.00134982 -0.00398298 0 -0.0013561 -0.00403864 0 -0.0013623 -0.00409454 0 -0.00136842 -0.00415069 0 -0.00137446 -0.00420708 0 -0.00138042 -0.00426371 0 -0.0013863 -0.00432058 0 -0.0013921 -0.00437768 0 -0.00139782 -0.00443501 0 -0.00140346 -0.00449257 0 -0.00140902 -0.00455035 0 -0.0014145 -0.00460836 0 -0.0014199 -0.00466658 0 -0.00142522 -0.00472501 0 -0.00143046 -0.00478366 0 -0.00143562 -0.00484252 0 -0.0014407 -0.00490157 0 -0.0014457 -0.00496084 0 -0.00145062 -0.0050203 0 -0.00145546 -0.00507995 0 -0.00146022 -0.0051398 0 -0.0014649 -0.00519983 0 -0.0014695 -0.00526006 0 -0.00147402 -0.00532046 0 -0.00147846 -0.00538104 0 -0.00148282 -0.0054418 0 -0.0014871 -0.00550273 0 -0.0014913 -0.00556384 0 -0.00149542 -0.0056251 0 -0.00149946 -0.00568654 0 -0.00150342 -0.00574813 0 -0.0015073 -0.00580988 0 -0.0015111 -0.00587178 0 -0.00151482 -0.00593383 0 -0.00151846 -0.00599603 0 -0.00152202 -0.00605837 0 -0.0015255 -0.00612086 0 -0.0015289 -0.00618348 0 -0.00153222 -0.00624624 0 -0.00153546 -0.00630912 0 -0.00153862 -0.00637214 0 -0.0015417 -0.00643528 0 -0.0015447 -0.00649854 0 -0.00154762 -0.00656192 0 -0.00155045 -0.00662542 0 -0.00155321 -0.00668902 0 -0.00155589 -0.00675274 0 -0.00155849 -0.00681656 0 -0.00156101 -0.00688048 0 -0.00156345 -0.00694451 0 -0.00156581 -0.00700862 0 -0.00156809 -0.00707284 0 -0.00157029 -0.00713714 0 -0.00157241 -0.00720152 0 -0.00157445 -0.00726599 0 -0.00157641 -0.00733054 0 -0.00157828 -0.00739517 0 -0.00158008 -0.00745987 0 -0.0015818 -0.00752464 0 -0.00158344 -0.00758948 0 -0.00158499 -0.00765439 0 -0.00158647 -0.00771935 0 -0.00158786 -0.00778437 0 -0.00158918 -0.00784945 0 -0.00159041 -0.00791458 0 -0.00159156 -0.00797975 0 -0.00159263 -0.00804497 0 -0.00159362 -0.00811022 0 -0.00159453 -0.00817552 0 -0.00159536 -0.00824084 0 -0.00159611 -0.00830619 0 -0.00159678 -0.00837157 0 -0.00159736 -0.00843696 0 -0.00159787 -0.00850237 0 -0.00159829 -0.00856778 0 -0.00159863 -0.0086332 0 -0.00159889 -0.00869862 0 -0.00159908 -0.00876404 0 -0.00159918 -0.00882945 0 -0.00159919 -0.00889484 0 1.518e-06 -5.8806e-05 0 -1.43652e-05 -6.05811e-05 0 -3.01604e-05 -6.30039e-05 0 -4.58685e-05 -6.607e-05 0 -6.149e-05 -6.9775e-05 0 -7.70256e-05 -7.41147e-05 0 -9.2476e-05 -7.90848e-05 0 -0.000107842 -8.46812e-05 0 -0.000123123 -9.08997e-05 0 -0.000138321 -9.77364e-05 0 -0.000153436 -0.000105187 0 -0.000168469 -0.000113249 0 -0.000183419 -0.000121916 0 -0.000198287 -0.000131187 0 -0.000213073 -0.000141057 0 -0.000227779 -0.000151522 0 -0.000242403 -0.000162579 0 -0.000256947 -0.000174225 0 -0.00027141 -0.000186456 0 -0.000285793 -0.000199269 0 -0.000300096 -0.000212661 0 -0.000314318 -0.000226628 0 -0.000328461 -0.000241168 0 -0.000342523 -0.000256276 0 -0.000356506 -0.000271951 0 -0.000370409 -0.000288189 0 -0.000384233 -0.000304986 0 -0.000397976 -0.000322341 0 -0.000411641 -0.000340248 0 -0.000425225 -0.000358706 0 -0.00043873 -0.000377711 0 -0.000452156 -0.00039726 0 -0.000465502 -0.00041735 0 -0.000478769 -0.000437978 0 -0.000491957 -0.00045914 0 -0.000505065 -0.000480833 0 -0.000518094 -0.000503054 0 -0.000531043 -0.0005258 0 -0.000543914 -0.000549068 0 -0.000556705 -0.000572854 0 -0.000569417 -0.000597156 0 -0.00058205 -0.00062197 0 -0.000594603 -0.000647292 0 -0.000607078 -0.00067312 0 -0.000619473 -0.00069945 0 -0.000631789 -0.00072628 0 -0.000644025 -0.000753606 0 -0.000656183 -0.000781424 0 -0.000668261 -0.000809732 0 -0.00068026 -0.000838526 0 -0.00069218 -0.000867804 0 -0.00070402 -0.000897561 0 -0.000715782 -0.000927796 0 -0.000727464 -0.000958503 0 -0.000739067 -0.000989681 0 -0.00075059 -0.00102133 0 -0.000762035 -0.00105344 0 -0.0007734 -0.00108601 0 -0.000784686 -0.00111903 0 -0.000795893 -0.00115252 0 -0.00080702 -0.00118645 0 -0.000818069 -0.00122083 0 -0.000829038 -0.00125566 0 -0.000839928 -0.00129092 0 -0.000850739 -0.00132663 0 -0.00086147 -0.00136277 0 -0.000872122 -0.00139934 0 -0.000882696 -0.00143634 0 -0.00089319 -0.00147377 0 -0.000903604 -0.00151162 0 -0.00091394 -0.00154989 0 -0.000924196 -0.00158858 0 -0.000934373 -0.00162767 0 -0.000944471 -0.00166718 0 -0.00095449 -0.00170709 0 -0.00096443 -0.00174741 0 -0.00097429 -0.00178813 0 -0.000984071 -0.00182924 0 -0.000993773 -0.00187075 0 -0.0010034 -0.00191265 0 -0.00101294 -0.00195493 0 -0.0010224 -0.0019976 0 -0.00103179 -0.00204065 0 -0.0010411 -0.00208408 0 -0.00105032 -0.00212788 0 -0.00105947 -0.00217206 0 -0.00106854 -0.0022166 0 -0.00107753 -0.0022615 0 -0.00108644 -0.00230677 0 -0.00109527 -0.0023524 0 -0.00110402 -0.00239838 0 -0.00111269 -0.00244471 0 -0.00112129 -0.00249139 0 -0.0011298 -0.00253842 0 -0.00113823 -0.00258579 0 -0.00114659 -0.0026335 0 -0.00115487 -0.00268154 0 -0.00116306 -0.00272992 0 -0.00117118 -0.00277863 0 -0.00117922 -0.00282766 0 -0.00118718 -0.00287702 0 -0.00119506 -0.0029267 0 -0.00120286 -0.00297669 0 -0.00121058 -0.003027 0 -0.00121823 -0.00307762 0 -0.00122579 -0.00312854 0 -0.00123327 -0.00317977 0 -0.00124068 -0.0032313 0 -0.00124801 -0.00328313 0 -0.00125525 -0.00333525 0 -0.00126242 -0.00338766 0 -0.00126951 -0.00344037 0 -0.00127652 -0.00349335 0 -0.00128345 -0.00354662 0 -0.0012903 -0.00360016 0 -0.00129707 -0.00365399 0 -0.00130376 -0.00370808 0 -0.00131038 -0.00376244 0 -0.00131691 -0.00381707 0 -0.00132336 -0.00387196 0 -0.00132974 -0.00392711 0 -0.00133604 -0.00398251 0 -0.00134225 -0.00403817 0 -0.00134839 -0.00409408 0 -0.00135445 -0.00415023 0 -0.00136043 -0.00420663 0 -0.00136633 -0.00426327 0 -0.00137215 -0.00432014 0 -0.00137789 -0.00437725 0 -0.00138356 -0.00443459 0 -0.00138914 -0.00449215 0 -0.00139464 -0.00454994 0 -0.00140007 -0.00460795 0 -0.00140542 -0.00466618 0 -0.00141068 -0.00472462 0 -0.00141587 -0.00478327 0 -0.00142098 -0.00484213 0 -0.00142601 -0.0049012 0 -0.00143096 -0.00496047 0 -0.00143583 -0.00501993 0 -0.00144062 -0.00507959 0 -0.00144533 -0.00513945 0 -0.00144997 -0.00519949 0 -0.00145452 -0.00525972 0 -0.001459 -0.00532013 0 -0.00146339 -0.00538071 0 -0.00146771 -0.00544148 0 -0.00147194 -0.00550242 0 -0.0014761 -0.00556353 0 -0.00148018 -0.0056248 0 -0.00148418 -0.00568624 0 -0.0014881 -0.00574784 0 -0.00149194 -0.00580959 0 -0.0014957 -0.0058715 0 -0.00149939 -0.00593356 0 -0.00150299 -0.00599576 0 -0.00150651 -0.00605811 0 -0.00150996 -0.0061206 0 -0.00151332 -0.00618323 0 -0.00151661 -0.00624599 0 -0.00151982 -0.00630888 0 -0.00152295 -0.00637191 0 -0.00152599 -0.00643505 0 -0.00152896 -0.00649832 0 -0.00153185 -0.00656171 0 -0.00153467 -0.00662521 0 -0.0015374 -0.00668882 0 -0.00154005 -0.00675254 0 -0.00154262 -0.00681637 0 -0.00154512 -0.0068803 0 -0.00154753 -0.00694433 0 -0.00154987 -0.00700845 0 -0.00155213 -0.00707267 0 -0.0015543 -0.00713698 0 -0.0015564 -0.00720137 0 -0.00155842 -0.00726584 0 -0.00156036 -0.0073304 0 -0.00156222 -0.00739503 0 -0.001564 -0.00745974 0 -0.0015657 -0.00752452 0 -0.00156732 -0.00758936 0 -0.00156886 -0.00765427 0 -0.00157032 -0.00771924 0 -0.0015717 -0.00778427 0 -0.001573 -0.00784935 0 -0.00157422 -0.00791449 0 -0.00157536 -0.00797967 0 -0.00157642 -0.00804489 0 -0.00157741 -0.00811015 0 -0.00157831 -0.00817545 0 -0.00157913 -0.00824078 0 -0.00157987 -0.00830614 0 -0.00158053 -0.00837152 0 -0.00158111 -0.00843692 0 -0.00158161 -0.00850233 0 -0.00158203 -0.00856776 0 -0.00158237 -0.00863318 0 -0.00158263 -0.00869861 0 -0.00158281 -0.00876404 0 -0.00158291 -0.00882945 0 -0.00158293 -0.00889485 0 1.75311e-06 -5.7624e-05 0 -1.39662e-05 -5.9406e-05 0 -2.95987e-05 -6.18356e-05 0 -4.51453e-05 -6.49082e-05 0 -6.06065e-05 -6.86196e-05 0 -7.59829e-05 -7.29655e-05 0 -9.12752e-05 -7.79416e-05 0 -0.000106484 -8.35439e-05 0 -0.00012161 -8.97683e-05 0 -0.000136653 -9.66107e-05 0 -0.000151614 -0.000104067 0 -0.000166493 -0.000112134 0 -0.000181291 -0.000120808 0 -0.000196008 -0.000130084 0 -0.000210644 -0.000139959 0 -0.0002252 -0.00015043 0 -0.000239677 -0.000161493 0 -0.000254073 -0.000173145 0 -0.00026839 -0.000185382 0 -0.000282627 -0.0001982 0 -0.000296785 -0.000211598 0 -0.000310863 -0.000225571 0 -0.000324863 -0.000240116 0 -0.000338783 -0.000255231 0 -0.000352625 -0.000270911 0 -0.000366387 -0.000287155 0 -0.000380071 -0.000303958 0 -0.000393675 -0.000321318 0 -0.000407201 -0.000339232 0 -0.000420649 -0.000357696 0 -0.000434017 -0.000376707 0 -0.000447307 -0.000396262 0 -0.000460519 -0.000416358 0 -0.000473652 -0.000436991 0 -0.000486706 -0.000458159 0 -0.000499682 -0.000479858 0 -0.000512579 -0.000502085 0 -0.000525398 -0.000524837 0 -0.000538138 -0.000548111 0 -0.0005508 -0.000571903 0 -0.000563384 -0.00059621 0 -0.000575889 -0.00062103 0 -0.000588316 -0.000646358 0 -0.000600664 -0.000672192 0 -0.000612934 -0.000698529 0 -0.000625125 -0.000725364 0 -0.000637238 -0.000752696 0 -0.000649273 -0.00078052 0 -0.000661229 -0.000808834 0 -0.000673107 -0.000837634 0 -0.000684906 -0.000866917 0 -0.000696627 -0.000896681 0 -0.00070827 -0.000926921 0 -0.000719834 -0.000957634 0 -0.000731319 -0.000988818 0 -0.000742727 -0.00102047 0 -0.000754056 -0.00105258 0 -0.000765306 -0.00108516 0 -0.000776478 -0.00111819 0 -0.000787572 -0.00115168 0 -0.000798587 -0.00118562 0 -0.000809524 -0.00122001 0 -0.000820382 -0.00125484 0 -0.000831162 -0.00129011 0 -0.000841863 -0.00132582 0 -0.000852487 -0.00136197 0 -0.000863031 -0.00139855 0 -0.000873498 -0.00143556 0 -0.000883886 -0.00147299 0 -0.000894195 -0.00151085 0 -0.000904426 -0.00154912 0 -0.000914579 -0.00158781 0 -0.000924654 -0.00162692 0 -0.00093465 -0.00166643 0 -0.000944567 -0.00170635 0 -0.000954406 -0.00174667 0 -0.000964167 -0.0017874 0 -0.00097385 -0.00182852 0 -0.000983454 -0.00187003 0 -0.000992979 -0.00191193 0 -0.00100243 -0.00195422 0 -0.0010118 -0.0019969 0 -0.00102109 -0.00203996 0 -0.0010303 -0.00208339 0 -0.00103943 -0.0021272 0 -0.00104849 -0.00217138 0 -0.00105746 -0.00221592 0 -0.00106636 -0.00226083 0 -0.00107518 -0.00230611 0 -0.00108392 -0.00235174 0 -0.00109259 -0.00239773 0 -0.00110117 -0.00244407 0 -0.00110968 -0.00249075 0 -0.00111811 -0.00253779 0 -0.00112646 -0.00258516 0 -0.00113473 -0.00263288 0 -0.00114292 -0.00268093 0 -0.00115103 -0.00272931 0 -0.00115907 -0.00277803 0 -0.00116703 -0.00282707 0 -0.00117491 -0.00287643 0 -0.00118271 -0.00292611 0 -0.00119043 -0.00297611 0 -0.00119807 -0.00302643 0 -0.00120564 -0.00307705 0 -0.00121313 -0.00312798 0 -0.00122054 -0.00317922 0 -0.00122787 -0.00323075 0 -0.00123512 -0.00328259 0 -0.00124229 -0.00333471 0 -0.00124939 -0.00338713 0 -0.0012564 -0.00343984 0 -0.00126334 -0.00349283 0 -0.0012702 -0.0035461 0 -0.00127698 -0.00359966 0 -0.00128369 -0.00365348 0 -0.00129031 -0.00370758 0 -0.00129686 -0.00376195 0 -0.00130333 -0.00381658 0 -0.00130972 -0.00387148 0 -0.00131603 -0.00392664 0 -0.00132226 -0.00398205 0 -0.00132841 -0.00403771 0 -0.00133449 -0.00409362 0 -0.00134049 -0.00414978 0 -0.00134641 -0.00420619 0 -0.00135225 -0.00426283 0 -0.00135801 -0.00431971 0 -0.00136369 -0.00437682 0 -0.0013693 -0.00443417 0 -0.00137483 -0.00449174 0 -0.00138028 -0.00454953 0 -0.00138565 -0.00460755 0 -0.00139094 -0.00466578 0 -0.00139615 -0.00472423 0 -0.00140129 -0.00478289 0 -0.00140634 -0.00484175 0 -0.00141132 -0.00490083 0 -0.00141622 -0.0049601 0 -0.00142104 -0.00501957 0 -0.00142579 -0.00507924 0 -0.00143045 -0.0051391 0 -0.00143504 -0.00519915 0 -0.00143955 -0.00525938 0 -0.00144398 -0.00531979 0 -0.00144833 -0.00538039 0 -0.0014526 -0.00544116 0 -0.00145679 -0.00550211 0 -0.00146091 -0.00556322 0 -0.00146495 -0.0056245 0 -0.00146891 -0.00568594 0 -0.00147279 -0.00574755 0 -0.00147659 -0.00580931 0 -0.00148031 -0.00587122 0 -0.00148396 -0.00593328 0 -0.00148753 -0.0059955 0 -0.00149101 -0.00605785 0 -0.00149442 -0.00612035 0 -0.00149776 -0.00618298 0 -0.00150101 -0.00624575 0 -0.00150418 -0.00630865 0 -0.00150728 -0.00637168 0 -0.0015103 -0.00643483 0 -0.00151324 -0.0064981 0 -0.0015161 -0.00656149 0 -0.00151888 -0.006625 0 -0.00152159 -0.00668862 0 -0.00152421 -0.00675235 0 -0.00152676 -0.00681618 0 -0.00152923 -0.00688011 0 -0.00153162 -0.00694415 0 -0.00153393 -0.00700828 0 -0.00153617 -0.0070725 0 -0.00153832 -0.00713682 0 -0.0015404 -0.00720121 0 -0.0015424 -0.0072657 0 -0.00154432 -0.00733026 0 -0.00154616 -0.0073949 0 -0.00154792 -0.00745961 0 -0.0015496 -0.0075244 0 -0.00155121 -0.00758925 0 -0.00155273 -0.00765416 0 -0.00155418 -0.00771914 0 -0.00155554 -0.00778417 0 -0.00155683 -0.00784926 0 -0.00155804 -0.0079144 0 -0.00155917 -0.00797958 0 -0.00156022 -0.00804481 0 -0.00156119 -0.00811008 0 -0.00156209 -0.00817539 0 -0.0015629 -0.00824072 0 -0.00156363 -0.00830609 0 -0.00156429 -0.00837147 0 -0.00156486 -0.00843688 0 -0.00156536 -0.0085023 0 -0.00156577 -0.00856773 0 -0.00156611 -0.00863317 0 -0.00156637 -0.0086986 0 -0.00156655 -0.00876404 0 -0.00156664 -0.00882946 0 -0.00156666 -0.00889487 0 1.98311e-06 -5.6454e-05 0 -1.35723e-05 -5.82429e-05 0 -2.90423e-05 -6.06791e-05 0 -4.44274e-05 -6.37582e-05 0 -5.97283e-05 -6.74759e-05 0 -7.49456e-05 -7.18278e-05 0 -9.00798e-05 -7.681e-05 0 -0.000105131 -8.24181e-05 0 -0.000120101 -8.86483e-05 0 -0.000134989 -9.54965e-05 0 -0.000149796 -0.000102959 0 -0.000164523 -0.000111031 0 -0.000179169 -0.00011971 0 -0.000193735 -0.000128992 0 -0.000208221 -0.000138873 0 -0.000222628 -0.00014935 0 -0.000236956 -0.000160418 0 -0.000251205 -0.000172076 0 -0.000265375 -0.000184318 0 -0.000279466 -0.000197142 0 -0.000293479 -0.000210546 0 -0.000307414 -0.000224524 0 -0.000321271 -0.000239075 0 -0.000335049 -0.000254196 0 -0.000348749 -0.000269882 0 -0.000362371 -0.000286132 0 -0.000375914 -0.000302941 0 -0.00038938 -0.000320307 0 -0.000402768 -0.000338226 0 -0.000416078 -0.000356696 0 -0.00042931 -0.000375713 0 -0.000442465 -0.000395273 0 -0.000455541 -0.000415375 0 -0.00046854 -0.000436014 0 -0.000481461 -0.000457188 0 -0.000494304 -0.000478893 0 -0.00050707 -0.000501126 0 -0.000519758 -0.000523884 0 -0.000532368 -0.000547163 0 -0.000544901 -0.000570961 0 -0.000557356 -0.000595275 0 -0.000569734 -0.0006201 0 -0.000582034 -0.000645434 0 -0.000594256 -0.000671274 0 -0.000606401 -0.000697616 0 -0.000618468 -0.000724457 0 -0.000630457 -0.000751795 0 -0.000642369 -0.000779625 0 -0.000654203 -0.000807945 0 -0.00066596 -0.000836751 0 -0.000677639 -0.00086604 0 -0.00068924 -0.000895809 0 -0.000700764 -0.000926055 0 -0.00071221 -0.000956774 0 -0.000723578 -0.000987964 0 -0.000734869 -0.00101962 0 -0.000746082 -0.00105174 0 -0.000757218 -0.00108432 0 -0.000768276 -0.00111736 0 -0.000779256 -0.00115086 0 -0.000790159 -0.0011848 0 -0.000800984 -0.00121919 0 -0.000811732 -0.00125403 0 -0.000822402 -0.00128931 0 -0.000832994 -0.00132503 0 -0.000843509 -0.00136118 0 -0.000853946 -0.00139777 0 -0.000864306 -0.00143478 0 -0.000874588 -0.00147222 0 -0.000884792 -0.00151008 0 -0.000894919 -0.00154836 0 -0.000904968 -0.00158706 0 -0.00091494 -0.00162617 0 -0.000924834 -0.00166569 0 -0.00093465 -0.00170561 0 -0.000944389 -0.00174594 0 -0.00095405 -0.00178667 0 -0.000963633 -0.0018278 0 -0.000973139 -0.00186932 0 -0.000982568 -0.00191123 0 -0.000991919 -0.00195352 0 -0.00100119 -0.0019962 0 -0.00101039 -0.00203926 0 -0.00101951 -0.0020827 0 -0.00102855 -0.00212652 0 -0.00103751 -0.0021707 0 -0.00104639 -0.00221526 0 -0.0010552 -0.00226017 0 -0.00106393 -0.00230545 0 -0.00107258 -0.00235109 0 -0.00108116 -0.00239708 0 -0.00108966 -0.00244343 0 -0.00109808 -0.00249012 0 -0.00110642 -0.00253716 0 -0.00111468 -0.00258454 0 -0.00112287 -0.00263226 0 -0.00113098 -0.00268032 0 -0.00113901 -0.00272871 0 -0.00114696 -0.00277743 0 -0.00115484 -0.00282648 0 -0.00116264 -0.00287584 0 -0.00117036 -0.00292553 0 -0.001178 -0.00297554 0 -0.00118557 -0.00302586 0 -0.00119306 -0.00307649 0 -0.00120047 -0.00312743 0 -0.0012078 -0.00317867 0 -0.00121506 -0.00323021 0 -0.00122224 -0.00328205 0 -0.00122934 -0.00333418 0 -0.00123636 -0.00338661 0 -0.0012433 -0.00343932 0 -0.00125017 -0.00349232 0 -0.00125696 -0.0035456 0 -0.00126367 -0.00359915 0 -0.00127031 -0.00365299 0 -0.00127687 -0.00370709 0 -0.00128335 -0.00376147 0 -0.00128975 -0.0038161 0 -0.00129607 -0.00387101 0 -0.00130232 -0.00392617 0 -0.00130849 -0.00398158 0 -0.00131458 -0.00403725 0 -0.00132059 -0.00409317 0 -0.00132653 -0.00414934 0 -0.00133239 -0.00420575 0 -0.00133817 -0.0042624 0 -0.00134387 -0.00431928 0 -0.0013495 -0.0043764 0 -0.00135505 -0.00443375 0 -0.00136052 -0.00449133 0 -0.00136591 -0.00454913 0 -0.00137123 -0.00460715 0 -0.00137647 -0.00466539 0 -0.00138163 -0.00472384 0 -0.00138671 -0.00478251 0 -0.00139171 -0.00484138 0 -0.00139664 -0.00490046 0 -0.00140149 -0.00495974 0 -0.00140626 -0.00501921 0 -0.00141096 -0.00507889 0 -0.00141558 -0.00513875 0 -0.00142012 -0.00519881 0 -0.00142458 -0.00525905 0 -0.00142896 -0.00531947 0 -0.00143327 -0.00538007 0 -0.0014375 -0.00544085 0 -0.00144165 -0.0055018 0 -0.00144572 -0.00556291 0 -0.00144972 -0.0056242 0 -0.00145364 -0.00568565 0 -0.00145748 -0.00574726 0 -0.00146124 -0.00580902 0 -0.00146493 -0.00587094 0 -0.00146854 -0.00593301 0 -0.00147207 -0.00599523 0 -0.00147552 -0.00605759 0 -0.0014789 -0.0061201 0 -0.00148219 -0.00618273 0 -0.00148541 -0.00624551 0 -0.00148856 -0.00630841 0 -0.00149162 -0.00637145 0 -0.00149461 -0.00643461 0 -0.00149752 -0.00649788 0 -0.00150035 -0.00656128 0 -0.00150311 -0.00662479 0 -0.00150578 -0.00668842 0 -0.00150838 -0.00675215 0 -0.0015109 -0.00681599 0 -0.00151335 -0.00687993 0 -0.00151571 -0.00694397 0 -0.001518 -0.00700811 0 -0.00152021 -0.00707234 0 -0.00152235 -0.00713666 0 -0.0015244 -0.00720106 0 -0.00152638 -0.00726555 0 -0.00152828 -0.00733012 0 -0.0015301 -0.00739476 0 -0.00153184 -0.00745948 0 -0.00153351 -0.00752427 0 -0.0015351 -0.00758913 0 -0.00153661 -0.00765405 0 -0.00153804 -0.00771903 0 -0.00153939 -0.00778407 0 -0.00154067 -0.00784916 0 -0.00154187 -0.00791431 0 -0.00154298 -0.0079795 0 -0.00154403 -0.00804474 0 -0.00154499 -0.00811001 0 -0.00154587 -0.00817532 0 -0.00154668 -0.00824066 0 -0.0015474 -0.00830603 0 -0.00154805 -0.00837143 0 -0.00154862 -0.00843684 0 -0.00154911 -0.00850227 0 -0.00154952 -0.0085677 0 -0.00154986 -0.00863315 0 -0.00155011 -0.00869859 0 -0.00155029 -0.00876403 0 -0.00155039 -0.00882946 0 -0.00155041 -0.00889488 0 2.208e-06 -5.5296e-05 0 -1.31837e-05 -5.70918e-05 0 -2.84911e-05 -5.95345e-05 0 -4.37148e-05 -6.262e-05 0 -5.88555e-05 -6.63439e-05 0 -7.39136e-05 -7.07019e-05 0 -8.88898e-05 -7.569e-05 0 -0.000103785 -8.13039e-05 0 -0.000118598 -8.75398e-05 0 -0.000133332 -9.43937e-05 0 -0.000147985 -0.000101862 0 -0.000162558 -0.00010994 0 -0.000177052 -0.000118624 0 -0.000191467 -0.000127912 0 -0.000205803 -0.000137798 0 -0.000220061 -0.00014828 0 -0.000234241 -0.000159354 0 -0.000248342 -0.000171017 0 -0.000262366 -0.000183265 0 -0.000276312 -0.000196095 0 -0.00029018 -0.000209504 0 -0.000303971 -0.000223489 0 -0.000317684 -0.000238045 0 -0.00033132 -0.000253171 0 -0.000344878 -0.000268864 0 -0.00035836 -0.000285119 0 -0.000371764 -0.000301934 0 -0.000385091 -0.000319305 0 -0.000398341 -0.00033723 0 -0.000411513 -0.000355706 0 -0.000424609 -0.000374729 0 -0.000437628 -0.000394295 0 -0.000450569 -0.000414403 0 -0.000463434 -0.000435048 0 -0.000476222 -0.000456227 0 -0.000488933 -0.000477938 0 -0.000501567 -0.000500177 0 -0.000514124 -0.00052294 0 -0.000526604 -0.000546226 0 -0.000539008 -0.000570029 0 -0.000551335 -0.000594348 0 -0.000563585 -0.000619179 0 -0.000575758 -0.000644519 0 -0.000587854 -0.000670365 0 -0.000599873 -0.000696713 0 -0.000611816 -0.00072356 0 -0.000623682 -0.000750903 0 -0.000635471 -0.000778739 0 -0.000647183 -0.000807064 0 -0.000658818 -0.000835876 0 -0.000670377 -0.000865171 0 -0.000681858 -0.000894946 0 -0.000693263 -0.000925198 0 -0.000704591 -0.000955923 0 -0.000715842 -0.000987119 0 -0.000727017 -0.00101878 0 -0.000738115 -0.00105091 0 -0.000749135 -0.0010835 0 -0.000760079 -0.00111654 0 -0.000770947 -0.00115004 0 -0.000781737 -0.00118399 0 -0.000792451 -0.00121839 0 -0.000803087 -0.00125323 0 -0.000813647 -0.00128852 0 -0.000824131 -0.00132424 0 -0.000834537 -0.0013604 0 -0.000844867 -0.00139699 0 -0.000855119 -0.00143401 0 -0.000865295 -0.00147145 0 -0.000875394 -0.00150932 0 -0.000885417 -0.00154761 0 -0.000895362 -0.00158631 0 -0.000905231 -0.00162543 0 -0.000915023 -0.00166495 0 -0.000924738 -0.00170488 0 -0.000934377 -0.00174522 0 -0.000943938 -0.00178595 0 -0.000953423 -0.00182708 0 -0.000962831 -0.00186861 0 -0.000972162 -0.00191052 0 -0.000981417 -0.00195283 0 -0.000990594 -0.00199551 0 -0.000999695 -0.00203858 0 -0.00100872 -0.00208203 0 -0.00101767 -0.00212585 0 -0.00102654 -0.00217004 0 -0.00103533 -0.0022146 0 -0.00104405 -0.00225952 0 -0.00105269 -0.0023048 0 -0.00106125 -0.00235045 0 -0.00106974 -0.00239645 0 -0.00107815 -0.0024428 0 -0.00108648 -0.0024895 0 -0.00109474 -0.00253654 0 -0.00110291 -0.00258393 0 -0.00111102 -0.00263166 0 -0.00111904 -0.00267972 0 -0.00112699 -0.00272811 0 -0.00113486 -0.00277684 0 -0.00114266 -0.00282589 0 -0.00115038 -0.00287527 0 -0.00115802 -0.00292496 0 -0.00116558 -0.00297497 0 -0.00117307 -0.0030253 0 -0.00118048 -0.00307593 0 -0.00118782 -0.00312688 0 -0.00119507 -0.00317812 0 -0.00120226 -0.00322967 0 -0.00120936 -0.00328151 0 -0.00121639 -0.00333365 0 -0.00122334 -0.00338608 0 -0.00123021 -0.0034388 0 -0.00123701 -0.00349181 0 -0.00124373 -0.00354509 0 -0.00125037 -0.00359866 0 -0.00125694 -0.00365249 0 -0.00126343 -0.0037066 0 -0.00126984 -0.00376098 0 -0.00127618 -0.00381563 0 -0.00128243 -0.00387054 0 -0.00128862 -0.0039257 0 -0.00129472 -0.00398113 0 -0.00130075 -0.0040368 0 -0.0013067 -0.00409273 0 -0.00131258 -0.0041489 0 -0.00131838 -0.00420531 0 -0.0013241 -0.00426197 0 -0.00132974 -0.00431886 0 -0.00133531 -0.00437598 0 -0.0013408 -0.00443334 0 -0.00134622 -0.00449092 0 -0.00135155 -0.00454873 0 -0.00135682 -0.00460676 0 -0.001362 -0.004665 0 -0.00136711 -0.00472346 0 -0.00137214 -0.00478213 0 -0.00137709 -0.00484101 0 -0.00138197 -0.00490009 0 -0.00138677 -0.00495938 0 -0.00139149 -0.00501886 0 -0.00139614 -0.00507854 0 -0.00140071 -0.00513841 0 -0.0014052 -0.00519847 0 -0.00140962 -0.00525872 0 -0.00141395 -0.00531914 0 -0.00141822 -0.00537975 0 -0.0014224 -0.00544053 0 -0.00142651 -0.00550149 0 -0.00143054 -0.00556261 0 -0.0014345 -0.00562391 0 -0.00143838 -0.00568536 0 -0.00144218 -0.00574698 0 -0.0014459 -0.00580875 0 -0.00144955 -0.00587067 0 -0.00145312 -0.00593275 0 -0.00145662 -0.00599497 0 -0.00146003 -0.00605734 0 -0.00146337 -0.00611985 0 -0.00146664 -0.00618249 0 -0.00146982 -0.00624527 0 -0.00147293 -0.00630818 0 -0.00147597 -0.00637122 0 -0.00147892 -0.00643438 0 -0.0014818 -0.00649767 0 -0.00148461 -0.00656107 0 -0.00148733 -0.00662459 0 -0.00148998 -0.00668822 0 -0.00149256 -0.00675196 0 -0.00149505 -0.00681581 0 -0.00149747 -0.00687975 0 -0.00149981 -0.0069438 0 -0.00150208 -0.00700794 0 -0.00150427 -0.00707218 0 -0.00150638 -0.0071365 0 -0.00150841 -0.00720091 0 -0.00151037 -0.00726541 0 -0.00151225 -0.00732998 0 -0.00151405 -0.00739463 0 -0.00151578 -0.00745936 0 -0.00151743 -0.00752415 0 -0.001519 -0.00758901 0 -0.00152049 -0.00765394 0 -0.00152191 -0.00771893 0 -0.00152325 -0.00778397 0 -0.00152451 -0.00784907 0 -0.0015257 -0.00791422 0 -0.0015268 -0.00797942 0 -0.00152783 -0.00804466 0 -0.00152879 -0.00810994 0 -0.00152966 -0.00817526 0 -0.00153046 -0.00824061 0 -0.00153118 -0.00830598 0 -0.00153182 -0.00837138 0 -0.00153238 -0.0084368 0 -0.00153287 -0.00850223 0 -0.00153328 -0.00856768 0 -0.00153361 -0.00863313 0 -0.00153386 -0.00869858 0 -0.00153404 -0.00876403 0 -0.00153414 -0.00882947 0 -0.00153416 -0.0088949 0 2.42778e-06 -5.415e-05 0 -1.28002e-05 -5.59525e-05 0 -2.79451e-05 -5.84018e-05 0 -4.30075e-05 -6.14936e-05 0 -5.7988e-05 -6.52236e-05 0 -7.28871e-05 -6.95876e-05 0 -8.77053e-05 -7.45815e-05 0 -0.000102443 -8.02013e-05 0 -0.000117101 -8.64428e-05 0 -0.000131679 -9.33023e-05 0 -0.000146179 -0.000100776 0 -0.000160599 -0.000108859 0 -0.000174941 -0.000117549 0 -0.000189205 -0.000126842 0 -0.000203391 -0.000136734 0 -0.0002175 -0.000147222 0 -0.000231531 -0.000158302 0 -0.000245485 -0.00016997 0 -0.000259362 -0.000182224 0 -0.000273163 -0.000195059 0 -0.000286886 -0.000208474 0 -0.000300533 -0.000222464 0 -0.000314103 -0.000237026 0 -0.000327597 -0.000252158 0 -0.000341014 -0.000267855 0 -0.000354355 -0.000284116 0 -0.000367619 -0.000300937 0 -0.000380807 -0.000318314 0 -0.000393919 -0.000336245 0 -0.000406954 -0.000354726 0 -0.000419913 -0.000373755 0 -0.000432796 -0.000393327 0 -0.000445603 -0.00041344 0 -0.000458334 -0.000434091 0 -0.000470988 -0.000455276 0 -0.000483567 -0.000476993 0 -0.000496069 -0.000499237 0 -0.000508496 -0.000522006 0 -0.000520846 -0.000545297 0 -0.00053312 -0.000569107 0 -0.000545319 -0.000593432 0 -0.000557441 -0.000618269 0 -0.000569487 -0.000643614 0 -0.000581457 -0.000669465 0 -0.000593352 -0.000695819 0 -0.00060517 -0.000722672 0 -0.000616912 -0.000750021 0 -0.000628578 -0.000777862 0 -0.000640168 -0.000806194 0 -0.000651682 -0.000835011 0 -0.00066312 -0.000864312 0 -0.000674482 -0.000894093 0 -0.000685769 -0.00092435 0 -0.000696979 -0.000955081 0 -0.000708113 -0.000986282 0 -0.000719171 -0.00101795 0 -0.000730153 -0.00105008 0 -0.000741059 -0.00108268 0 -0.000751889 -0.00111573 0 -0.000762643 -0.00114923 0 -0.000773321 -0.00118319 0 -0.000783923 -0.00121759 0 -0.000794449 -0.00125244 0 -0.000804899 -0.00128773 0 -0.000815273 -0.00132346 0 -0.000825571 -0.00135963 0 -0.000835793 -0.00139622 0 -0.000845939 -0.00143325 0 -0.000856009 -0.0014707 0 -0.000866003 -0.00150857 0 -0.000875921 -0.00154686 0 -0.000885763 -0.00158557 0 -0.000895529 -0.00162469 0 -0.000905219 -0.00166422 0 -0.000914833 -0.00170416 0 -0.000924371 -0.0017445 0 -0.000933833 -0.00178524 0 -0.000943219 -0.00182638 0 -0.000952529 -0.00186791 0 -0.000961763 -0.00190983 0 -0.000970921 -0.00195214 0 -0.000980003 -0.00199483 0 -0.000989009 -0.00203791 0 -0.000997939 -0.00208136 0 -0.00100679 -0.00212518 0 -0.00101557 -0.00216938 0 -0.00102427 -0.00221394 0 -0.0010329 -0.00225887 0 -0.00104145 -0.00230416 0 -0.00104992 -0.00234981 0 -0.00105832 -0.00239582 0 -0.00106664 -0.00244217 0 -0.00107489 -0.00248888 0 -0.00108306 -0.00253593 0 -0.00109115 -0.00258332 0 -0.00109917 -0.00263105 0 -0.00110711 -0.00267912 0 -0.00111498 -0.00272752 0 -0.00112277 -0.00277626 0 -0.00113048 -0.00282531 0 -0.00113812 -0.00287469 0 -0.00114568 -0.00292439 0 -0.00115317 -0.00297441 0 -0.00116058 -0.00302474 0 -0.00116791 -0.00307538 0 -0.00117517 -0.00312633 0 -0.00118235 -0.00317758 0 -0.00118946 -0.00322914 0 -0.00119649 -0.00328099 0 -0.00120344 -0.00333313 0 -0.00121032 -0.00338557 0 -0.00121712 -0.00343829 0 -0.00122385 -0.0034913 0 -0.0012305 -0.00354459 0 -0.00123707 -0.00359816 0 -0.00124357 -0.00365201 0 -0.00124999 -0.00370612 0 -0.00125634 -0.00376051 0 -0.00126261 -0.00381516 0 