<?xml version="1.0"?> 
<VTKFile type="StructuredGrid" version="0.1"> 
<StructuredGrid WholeExtent="0 200 0 200 0 0"> 
<Piece Extent="0 200 0 200 0 0"> 
<PointData Scalars="Stress components">
<DataArray type="Float32" Name="sigma_xx" format="ascii" NumberOfComponents="1"> 
-1991.87 -1982.09 -1972.31 -1962.54 -1952.76 -1942.99 -1933.21 -1923.43 -1913.66 -1903.88 -1894.11 -1884.33 -1874.56 -1864.78 -1855.01 -1845.23 -1835.46 -1825.68 -1815.91 -1806.13 -1796.36 -1786.59 -1776.81 -1767.04 -1757.26 -1747.49 -1737.72 -1727.94 -1718.17 -1708.4 -1698.62 -1688.85 -1679.08 -1669.31 -1659.53 -1649.76 -1639.99 -1630.22 -1620.45 -1610.67 -1600.9 -1591.13 -1581.36 -1571.59 -1561.82 -1552.04 -1542.27 -1532.5 -1522.73 -1512.96 -1503.19 -1493.12 -1483.04 -1472.97 -1462.9 -1452.83 -1442.75 -1432.68 -1422.61 -1412.54 -1402.47 -1392.4 -1382.33 -1372.26 -1362.19 -1352.12 -1342.06 -1331.99 -1321.92 -1311.85 -1301.79 -1291.72 -1281.66 -1271.59 -1261.53 -1251.46 -1241.4 -1231.33 -1221.27 -1211.21 -1201.14 -1191.08 -1181.02 -1170.96 -1160.9 -1150.84 -1140.78 -1130.72 -1120.66 -1110.6 -1100.54 -1090.48 -1080.42 -1070.36 -1060.31 -1050.25 -1040.19 -1030.14 -1020.08 -1010.02 -999.969 -989.905 -979.84 -969.776 -959.71 -949.645 -939.58 -929.514 -919.448 -909.381 -899.315 -889.248 -879.181 -869.114 -859.046 -848.979 -838.911 -828.843 -818.774 -808.706 -798.637 -788.568 -778.498 -768.429 -758.359 -748.289 -738.218 -728.148 -718.077 -708.006 -697.935 -687.863 -677.792 -667.72 -657.647 -647.575 -637.502 -627.429 -617.356 -607.283 -597.209 -587.135 -577.061 -566.987 -556.912 -546.837 -536.762 -526.687 -516.612 -506.536 -496.46 -486.85 -477.239 -467.628 -458.018 -448.406 -438.795 -429.183 -419.571 -409.959 -400.347 -390.734 -381.121 -371.508 -361.894 -352.281 -342.667 -333.053 -323.438 -313.823 -304.208 -294.593 -284.978 -275.362 -265.746 -256.13 -246.514 -236.897 -227.28 -217.663 -208.045 -198.428 -188.81 -179.192 -169.573 -159.954 -150.335 -140.716 -131.097 -121.477 -111.857 -102.237 -92.6166 -82.9959 -73.375 -63.7538 -54.1324 -44.5107 -34.8887 -25.2666 -15.6441 -1971.86 -1962.18 -1952.51 -1942.83 -1933.15 -1923.48 -1913.8 -1904.12 -1894.45 -1884.77 -1875.09 -1865.42 -1855.74 -1846.07 -1836.39 -1826.72 -1817.04 -1807.36 -1797.69 -1788.01 -1778.34 -1768.66 -1758.99 -1749.31 -1739.64 -1729.97 -1720.29 -1710.62 -1700.94 -1691.27 -1681.59 -1671.92 -1662.25 -1652.57 -1642.9 -1633.22 -1623.55 -1613.88 -1604.2 -1594.53 -1584.86 -1575.18 -1565.51 -1555.84 -1546.17 -1536.49 -1526.82 -1517.15 -1507.48 -1497.8 -1488.13 -1478.16 -1468.19 -1458.21 -1448.24 -1438.27 -1428.3 -1418.33 -1408.36 -1398.39 -1388.42 -1378.45 -1368.48 -1358.52 -1348.55 -1338.58 -1328.61 -1318.65 -1308.68 -1298.71 -1288.75 -1278.78 -1268.82 -1258.86 -1248.89 -1238.93 -1228.96 -1219 -1209.04 -1199.08 -1189.12 -1179.15 -1169.19 -1159.23 -1149.27 -1139.31 -1129.35 -1119.39 -1109.44 -1099.48 -1089.52 -1079.56 -1069.6 -1059.65 -1049.69 -1039.74 -1029.78 -1019.83 -1009.87 -999.916 -989.962 -979.999 -970.037 -960.074 -950.111 -940.148 -930.184 -920.221 -910.257 -900.292 -890.328 -880.363 -870.398 -860.433 -850.468 -840.502 -830.536 -820.57 -810.604 -800.637 -790.671 -780.704 -770.736 -760.769 -750.801 -740.833 -730.865 -720.896 -710.928 -700.959 -690.99 -681.02 -671.051 -661.081 -651.111 -641.14 -631.17 -621.199 -611.228 -601.257 -591.285 -581.313 -571.341 -561.369 -551.397 -541.424 -531.451 -521.478 -511.504 -501.531 -491.557 -482.037 -472.517 -462.996 -453.476 -443.955 -434.434 -424.913 -415.391 -405.869 -396.347 -386.825 -377.302 -367.779 -358.256 -348.733 -339.209 -329.685 -320.161 -310.637 -301.112 -291.588 -282.062 -272.537 -263.012 -253.486 -243.96 -234.433 -224.907 -215.38 -205.853 -196.326 -186.798 -177.27 -167.742 -158.214 -148.686 -139.157 -129.628 -120.099 -110.569 -101.039 -91.5093 -81.9791 -72.4486 -62.9178 -53.3868 -43.8556 -34.3241 -24.7923 -15.2604 -1951.85 -1942.28 -1932.7 -1923.12 -1913.54 -1903.97 -1894.39 -1884.81 -1875.24 -1865.66 -1856.08 -1846.51 -1836.93 -1827.35 -1817.78 -1808.2 -1798.62 -1789.05 -1779.47 -1769.9 -1760.32 -1750.74 -1741.17 -1731.59 -1722.02 -1712.44 -1702.87 -1693.29 -1683.71 -1674.14 -1664.56 -1654.99 -1645.41 -1635.84 -1626.26 -1616.69 -1607.11 -1597.54 -1587.96 -1578.39 -1568.81 -1559.24 -1549.67 -1540.09 -1530.52 -1520.94 -1511.37 -1501.8 -1492.22 -1482.65 -1473.07 -1463.2 -1453.33 -1443.46 -1433.59 -1423.72 -1413.85 -1403.98 -1394.11 -1384.24 -1374.37 -1364.51 -1354.64 -1344.77 -1334.9 -1325.04 -1315.17 -1305.31 -1295.44 -1285.58 -1275.71 -1265.85 -1255.98 -1246.12 -1236.26 -1226.39 -1216.53 -1206.67 -1196.81 -1186.95 -1177.09 -1167.23 -1157.37 -1147.51 -1137.65 -1127.79 -1117.93 -1108.07 -1098.22 -1088.36 -1078.5 -1068.65 -1058.79 -1048.93 -1039.08 -1029.22 -1019.37 -1009.51 -999.661 -989.807 -979.954 -970.094 -960.233 -950.373 -940.512 -930.65 -920.789 -910.927 -901.065 -891.203 -881.341 -871.478 -861.615 -851.752 -841.889 -832.025 -822.162 -812.298 -802.433 -792.569 -782.704 -772.839 -762.974 -753.108 -743.243 -733.377 -723.511 -713.644 -703.778 -693.911 -684.044 -674.176 -664.309 -654.441 -644.573 -634.705 -624.836 -614.967 -605.099 -595.229 -585.36 -575.49 -565.62 -555.75 -545.88 -536.009 -526.138 -516.267 -506.396 -496.524 -486.653 -477.223 -467.793 -458.364 -448.933 -439.503 -430.072 -420.641 -411.21 -401.779 -392.347 -382.915 -373.483 -364.051 -354.618 -345.185 -335.752 -326.319 -316.885 -307.451 -298.017 -288.583 -279.148 -269.714 -260.279 -250.843 -241.408 -231.972 -222.536 -213.1 -203.663 -194.226 -184.789 -175.352 -165.914 -156.477 -147.039 -137.601 -128.162 -118.723 -109.284 -99.8451 -90.4057 -80.966 -71.526 -62.0858 -52.6454 -43.2047 -33.7638 -24.3226 -14.8812 -1931.85 -1922.37 -1912.89 -1903.42 -1893.94 -1884.46 -1874.98 -1865.51 -1856.03 -1846.55 -1837.07 -1827.6 -1818.12 -1808.64 -1799.16 -1789.69 -1780.21 -1770.73 -1761.26 -1751.78 -1742.3 -1732.82 -1723.35 -1713.87 -1704.39 -1694.92 -1685.44 -1675.96 -1666.49 -1657.01 -1647.53 -1638.06 -1628.58 -1619.11 -1609.63 -1600.15 -1590.68 -1581.2 -1571.72 -1562.25 -1552.77 -1543.3 -1533.82 -1524.35 -1514.87 -1505.39 -1495.92 -1486.44 -1476.97 -1467.49 -1458.02 -1448.24 -1438.47 -1428.7 -1418.93 -1409.17 -1399.4 -1389.63 -1379.86 -1370.09 -1360.33 -1350.56 -1340.79 -1331.03 -1321.26 -1311.49 -1301.73 -1291.97 -1282.2 -1272.44 -1262.67 -1252.91 -1243.15 -1233.39 -1223.62 -1213.86 -1204.1 -1194.34 -1184.58 -1174.82 -1165.06 -1155.3 -1145.54 -1135.78 -1126.02 -1116.27 -1106.51 -1096.75 -1087 -1077.24 -1067.48 -1057.73 -1047.97 -1038.22 -1028.46 -1018.71 -1008.96 -999.204 -989.451 -979.699 -969.947 -960.189 -950.43 -940.671 -930.912 -921.153 -911.394 -901.634 -891.874 -882.114 -872.354 -862.593 -852.832 -843.071 -833.31 -823.548 -813.786 -804.024 -794.262 -784.5 -774.737 -764.974 -755.211 -745.448 -735.684 -725.92 -716.156 -706.392 -696.627 -686.862 -677.097 -667.332 -657.566 -647.801 -638.035 -628.268 -618.502 -608.735 -598.968 -589.201 -579.434 -569.666 -559.898 -550.13 -540.362 -530.593 -520.825 -511.056 -501.286 -491.517 -481.747 -472.408 -463.069 -453.73 -444.39 -435.05 -425.71 -416.37 -407.029 -397.688 -388.347 -379.006 -369.664 -360.323 -350.981 -341.638 -332.296 -322.953 -313.61 -304.267 -294.923 -285.58 -276.236 -266.891 -257.547 -248.202 -238.857 -229.512 -220.167 -210.821 -201.475 -192.129 -182.783 -173.436 -164.089 -154.742 -145.395 -136.047 -126.699 -117.351 -108.003 -98.6545 -89.3057 -79.9566 -70.6074 -61.2579 -51.9081 -42.5581 -33.2079 -23.8574 -14.5067 -1911.85 -1902.47 -1893.09 -1883.71 -1874.33 -1864.96 -1855.58 -1846.2 -1836.82 -1827.44 -1818.06 -1808.69 -1799.31 -1789.93 -1780.55 -1771.17 -1761.8 -1752.42 -1743.04 -1733.66 -1724.28 -1714.91 -1705.53 -1696.15 -1686.77 -1677.4 -1668.02 -1658.64 -1649.26 -1639.88 -1630.51 -1621.13 -1611.75 -1602.37 -1593 -1583.62 -1574.24 -1564.86 -1555.49 -1546.11 -1536.73 -1527.35 -1517.98 -1508.6 -1499.22 -1489.84 -1480.47 -1471.09 -1461.71 -1452.34 -1442.96 -1433.29 -1423.62 -1413.95 -1404.28 -1394.61 -1384.95 -1375.28 -1365.61 -1355.94 -1346.28 -1336.61 -1326.95 -1317.28 -1307.62 -1297.95 -1288.29 -1278.62 -1268.96 -1259.3 -1249.64 -1239.97 -1230.31 -1220.65 -1210.99 -1201.33 -1191.67 -1182.01 -1172.35 -1162.69 -1153.03 -1143.37 -1133.72 -1124.06 -1114.4 -1104.74 -1095.09 -1085.43 -1075.78 -1066.12 -1056.47 -1046.81 -1037.16 -1027.5 -1017.85 -1008.2 -998.546 -988.894 -979.242 -969.591 -959.94 -950.284 -940.627 -930.97 -921.313 -911.656 -901.999 -892.341 -882.683 -873.025 -863.366 -853.708 -844.049 -834.39 -824.73 -815.071 -805.411 -795.751 -786.091 -776.43 -766.77 -757.109 -747.448 -737.786 -728.125 -718.463 -708.801 -699.138 -689.476 -679.813 -670.15 -660.487 -650.823 -641.159 -631.495 -621.831 -612.167 -602.502 -592.837 -583.172 -573.507 -563.841 -554.175 -544.509 -534.843 -525.176 -515.51 -505.843 -496.176 -486.508 -476.84 -467.592 -458.344 -449.095 -439.846 -430.597 -421.347 -412.098 -402.848 -393.598 -384.347 -375.097 -365.846 -356.595 -347.343 -338.092 -328.84 -319.588 -310.336 -301.083 -291.83 -282.577 -273.324 -264.071 -254.817 -245.563 -236.309 -227.054 -217.8 -208.545 -199.29 -190.034 -180.779 -171.523 -162.267 -153.01 -143.754 -134.497 -125.24 -115.983 -106.725 -97.4674 -88.2094 -78.9511 -69.6926 -60.4339 -51.1749 -41.9157 -32.6563 -23.3966 -14.1367 -1891.85 -1882.57 -1873.29 -1864.01 -1854.73 -1845.45 -1836.17 -1826.89 -1817.62 -1808.34 -1799.06 -1789.78 -1780.5 -1771.22 -1761.94 -1752.66 -1743.38 -1734.11 -1724.83 -1715.55 -1706.27 -1696.99 -1687.71 -1678.43 -1669.15 -1659.87 -1650.6 -1641.32 -1632.04 -1622.76 -1613.48 -1604.2 -1594.92 -1585.64 -1576.36 -1567.09 -1557.81 -1548.53 -1539.25 -1529.97 -1520.69 -1511.41 -1502.13 -1492.85 -1483.57 -1474.3 -1465.02 -1455.74 -1446.46 -1437.18 -1427.9 -1418.33 -1408.76 -1399.2 -1389.63 -1380.06 -1370.49 -1360.93 -1351.36 -1341.8 -1332.23 -1322.67 -1313.1 -1303.54 -1293.97 -1284.41 -1274.85 -1265.28 -1255.72 -1246.16 -1236.6 -1227.04 -1217.48 -1207.92 -1198.36 -1188.8 -1179.24 -1169.68 -1160.12 -1150.56 -1141.01 -1131.45 -1121.89 -1112.33 -1102.78 -1093.22 -1083.67 -1074.11 -1064.56 -1055 -1045.45 -1035.9 -1026.34 -1016.79 -1007.24 -997.687 -988.135 -978.584 -969.033 -959.483 -949.933 -940.379 -930.824 -921.269 -911.714 -902.159 -892.603 -883.048 -873.492 -863.935 -854.379 -844.822 -835.265 -825.708 -816.151 -806.593 -797.036 -787.477 -777.919 -768.361 -758.802 -749.243 -739.684 -730.124 -720.565 -711.005 -701.445 -691.884 -682.324 -672.763 -663.202 -653.641 -644.079 -634.517 -624.955 -615.393 -605.831 -596.268 -586.705 -577.142 -567.579 -558.015 -548.451 -538.887 -529.323 -519.758 -510.194 -500.629 -491.064 -481.498 -471.932 -462.775 -453.617 -444.459 -435.301 -426.143 -416.984 -407.825 -398.666 -389.507 -380.347 -371.188 -362.028 -352.867 -343.707 -334.546 -325.385 -316.224 -307.062 -297.901 -288.739 -279.577 -270.414 -261.252 -252.089 -242.926 -233.762 -224.599 -215.435 -206.271 -197.106 -187.942 -178.777 -169.612 -160.447 -151.282 -142.116 -132.95 -123.784 -114.617 -105.451 -96.2838 -87.1167 -77.9494 -68.7818 -59.614 -50.4459 -41.2776 -32.1091 -22.9403 -13.7713 -1871.85 -1862.67 -1853.49 -1844.31 -1835.13 -1825.95 -1816.77 -1807.59 -1798.41 -1789.23 -1780.05 -1770.87 -1761.69 -1752.51 -1743.33 -1734.15 -1724.97 -1715.79 -1706.61 -1697.43 -1688.25 -1679.07 -1669.89 -1660.71 -1651.53 -1642.35 -1633.17 -1623.99 -1614.81 -1605.63 -1596.45 -1587.27 -1578.09 -1568.91 -1559.73 -1550.55 -1541.37 -1532.19 -1523.01 -1513.83 -1504.65 -1495.47 -1486.29 -1477.11 -1467.93 -1458.75 -1449.57 -1440.39 -1431.21 -1422.03 -1412.84 -1403.38 -1393.91 -1384.44 -1374.98 -1365.51 -1356.04 -1346.58 -1337.11 -1327.65 -1318.18 -1308.72 -1299.26 -1289.79 -1280.33 -1270.87 -1261.41 -1251.95 -1242.48 -1233.02 -1223.56 -1214.1 -1204.64 -1195.18 -1185.72 -1176.27 -1166.81 -1157.35 -1147.89 -1138.44 -1128.98 -1119.52 -1110.07 -1100.61 -1091.16 -1081.7 -1072.25 -1062.79 -1053.34 -1043.89 -1034.43 -1024.98 -1015.53 -1006.08 -996.626 -987.175 -977.724 -968.274 -958.824 -949.375 -939.926 -930.474 -921.021 -911.568 -902.115 -892.662 -883.208 -873.754 -864.3 -854.846 -845.391 -835.937 -826.482 -817.027 -807.571 -798.115 -788.66 -779.204 -769.747 -760.291 -750.834 -741.377 -731.92 -722.462 -713.004 -703.546 -694.088 -684.63 -675.171 -665.712 -656.253 -646.794 -637.334 -627.875 -618.415 -608.954 -599.494 -590.033 -580.572 -571.111 -561.65 -552.188 -542.726 -533.264 -523.802 -514.339 -504.877 -495.414 -485.95 -476.487 -467.023 -457.957 -448.89 -439.823 -430.756 -421.688 -412.62 -403.552 -394.484 -385.416 -376.347 -367.278 -358.209 -349.14 -340.07 -331.001 -321.931 -312.86 -303.79 -294.719 -285.648 -276.577 -267.505 -258.434 -249.362 -240.29 -231.217 -222.145 -213.072 -203.999 -194.925 -185.852 -176.778 -167.704 -158.63 -149.555 -140.481 -131.406 -122.331 -113.255 -104.18 -95.1038 -86.0277 -76.9514 -67.8748 -58.798 -49.721 -40.6438 -31.5663 -22.4885 -13.4106 -1851.85 -1842.77 -1833.69 -1824.61 -1815.53 -1806.45 -1797.37 -1788.29 -1779.21 -1770.13 -1761.05 -1751.97 -1742.89 -1733.81 -1724.73 -1715.64 -1706.56 -1697.48 -1688.4 -1679.32 -1670.24 -1661.16 -1652.08 -1643 -1633.92 -1624.83 -1615.75 -1606.67 -1597.59 -1588.51 -1579.43 -1570.35 -1561.27 -1552.18 -1543.1 -1534.02 -1524.94 -1515.86 -1506.77 -1497.69 -1488.61 -1479.53 -1470.45 -1461.36 -1452.28 -1443.2 -1434.12 -1425.04 -1415.95 -1406.87 -1397.79 -1388.42 -1379.06 -1369.69 -1360.32 -1350.96 -1341.59 -1332.23 -1322.87 -1313.5 -1304.14 -1294.78 -1285.41 -1276.05 -1266.69 -1257.33 -1247.97 -1238.61 -1229.25 -1219.89 -1210.53 -1201.17 -1191.81 -1182.45 -1173.09 -1163.73 -1154.38 -1145.02 -1135.66 -1126.31 -1116.95 -1107.6 -1098.24 -1088.89 -1079.53 -1070.18 -1060.83 -1051.47 -1042.12 -1032.77 -1023.42 -1014.07 -1004.71 -995.364 -986.013 -976.663 -967.314 -957.965 -948.616 -939.267 -929.919 -920.569 -911.218 -901.867 -892.516 -883.164 -873.813 -864.461 -855.109 -845.756 -836.404 -827.051 -817.698 -808.345 -798.991 -789.637 -780.283 -770.929 -761.575 -752.22 -742.865 -733.51 -724.155 -714.799 -705.443 -696.087 -686.731 -677.375 -668.018 -658.661 -649.304 -639.947 -630.589 -621.231 -611.873 -602.515 -593.156 -583.797 -574.438 -565.079 -555.72 -546.36 -537 -527.64 -518.28 -508.919 -499.558 -490.197 -480.836 -471.474 -462.113 -453.137 -444.161 -435.185 -426.209 -417.233 -408.256 -399.279 -390.302 -381.325 -372.347 -363.369 -354.391 -345.413 -336.434 -327.456 -318.477 -309.497 -300.518 -291.538 -282.558 -273.578 -264.598 -255.617 -246.636 -237.655 -228.674 -219.693 -210.711 -201.729 -192.747 -183.764 -174.782 -165.799 -156.816 -147.832 -138.849 -129.865 -120.881 -111.897 -102.912 -93.9273 -84.9424 -75.9572 -66.9718 -57.9861 -49.0002 -40.0141 -31.0278 -22.0412 -13.0544 -1831.85 -1822.87 -1813.89 -1804.91 -1795.93 -1786.95 -1777.97 -1768.99 -1760.01 -1751.03 -1742.04 -1733.06 -1724.08 -1715.1 -1706.12 -1697.14 -1688.16 -1679.17 -1670.19 -1661.21 -1652.23 -1643.25 -1634.26 -1625.28 -1616.3 -1607.32 -1598.33 -1589.35 -1580.37 -1571.39 -1562.4 -1553.42 -1544.44 -1535.46 -1526.47 -1517.49 -1508.51 -1499.52 -1490.54 -1481.56 -1472.57 -1463.59 -1454.61 -1445.62 -1436.64 -1427.65 -1418.67 -1409.69 -1400.7 -1391.72 -1382.73 -1373.47 -1364.2 -1354.94 -1345.67 -1336.41 -1327.14 -1317.88 -1308.62 -1299.36 -1290.09 -1280.83 -1271.57 -1262.31 -1253.05 -1243.79 -1234.53 -1225.27 -1216.01 -1206.75 -1197.49 -1188.23 -1178.97 -1169.72 -1160.46 -1151.2 -1141.95 -1132.69 -1123.44 -1114.18 -1104.93 -1095.67 -1086.42 -1077.16 -1067.91 -1058.66 -1049.41 -1040.15 -1030.9 -1021.65 -1012.4 -1003.15 -993.9 -984.65 -975.401 -966.152 -956.903 -947.655 -938.407 -929.16 -919.913 -910.664 -901.415 -892.166 -882.917 -873.667 -864.418 -855.168 -845.917 -836.667 -827.416 -818.165 -808.914 -799.662 -790.411 -781.159 -771.907 -762.655 -753.402 -744.149 -734.896 -725.643 -716.39 -707.136 -697.882 -688.628 -679.374 -670.119 -660.864 -651.609 -642.354 -633.098 -623.843 -614.587 -605.331 -596.074 -586.818 -577.561 -568.304 -559.046 -549.789 -540.531 -531.273 -522.015 -512.756 -503.498 -494.239 -484.98 -475.72 -466.461 -457.201 -448.317 -439.432 -430.547 -421.662 -412.777 -403.891 -395.005 -386.119 -377.233 -368.347 -359.46 -350.573 -341.686 -332.799 -323.911 -315.023 -306.135 -297.247 -288.359 -279.47 -270.581 -261.692 -252.802 -243.913 -235.023 -226.133 -217.243 -208.352 -199.461 -190.57 -181.679 -172.788 -163.896 -155.004 -146.112 -137.22 -128.327 -119.434 -110.541 -101.648 -92.7544 -83.8607 -74.9668 -66.0726 -57.1782 -48.2836 -39.3888 -30.4937 -21.5984 -12.7029 -1811.86 -1802.98 -1794.1 -1785.21 -1776.33 -1767.45 -1758.57 -1749.69 -1740.81 -1731.92 -1723.04 -1714.16 -1705.28 -1696.4 -1687.51 -1678.63 -1669.75 -1660.87 -1651.98 -1643.1 -1634.22 -1625.33 -1616.45 -1607.57 -1598.68 -1589.8 -1580.92 -1572.03 -1563.15 -1554.26 -1545.38 -1536.5 -1527.61 -1518.73 -1509.84 -1500.96 -1492.07 -1483.19 -1474.3 -1465.42 -1456.53 -1447.65 -1438.76 -1429.88 -1420.99 -1412.11 -1403.22 -1394.34 -1385.45 -1376.57 -1367.68 -1358.51 -1349.35 -1340.19 -1331.02 -1321.86 -1312.7 -1303.53 -1294.37 -1285.21 -1276.05 -1266.89 -1257.73 -1248.57 -1239.41 -1230.25 -1221.09 -1211.93 -1202.77 -1193.61 -1184.46 -1175.3 -1166.14 -1156.98 -1147.83 -1138.67 -1129.52 -1120.36 -1111.21 -1102.05 -1092.9 -1083.75 -1074.59 -1065.44 -1056.29 -1047.14 -1037.99 -1028.84 -1019.68 -1010.53 -1001.38 -992.235 -983.086 -973.937 -964.789 -955.641 -946.493 -937.346 -928.199 -919.053 -909.907 -900.76 -891.613 -882.466 -873.318 -864.17 -855.022 -845.874 -836.726 -827.577 -818.428 -809.279 -800.13 -790.98 -781.83 -772.68 -763.53 -754.38 -745.229 -736.078 -726.927 -717.776 -708.624 -699.472 -690.32 -681.168 -672.015 -662.863 -653.71 -644.557 -635.403 -626.25 -617.096 -607.942 -598.787 -589.633 -580.478 -571.323 -562.168 -553.013 -543.857 -534.701 -525.545 -516.389 -507.232 -498.075 -488.918 -479.761 -470.604 -461.446 -452.288 -443.495 -434.702 -425.908 -417.114 -408.32 -399.526 -390.731 -381.937 -373.142 -364.346 -355.551 -346.755 -337.96 -329.164 -320.367 -311.571 -302.774 -293.977 -285.18 -276.382 -267.585 -258.787 -249.989 -241.191 -232.392 -223.593 -214.794 -205.995 -197.196 -188.396 -179.596 -170.796 -161.996 -153.195 -144.394 -135.593 -126.792 -117.991 -109.189 -100.387 -91.5851 -82.7827 -73.9801 -65.1774 -56.3743 -47.5711 -38.7676 -29.9639 -21.16 -12.3559 -1791.86 -1783.08 -1774.3 -1765.52 -1756.74 -1747.95 -1739.17 -1730.39 -1721.61 -1712.82 -1704.04 -1695.26 -1686.48 -1677.69 -1668.91 -1660.13 -1651.34 -1642.56 -1633.77 -1624.99 -1616.21 -1607.42 -1598.64 -1589.85 -1581.07 -1572.28 -1563.5 -1554.71 -1545.93 -1537.14 -1528.36 -1519.57 -1510.79 -1502 -1493.22 -1484.43 -1475.64 -1466.86 -1458.07 -1449.28 -1440.5 -1431.71 -1422.92 -1414.14 -1405.35 -1396.56 -1387.78 -1378.99 -1370.2 -1361.41 -1352.62 -1343.56 -1334.5 -1325.43 -1316.37 -1307.31 -1298.25 -1289.19 -1280.12 -1271.06 -1262 -1252.94 -1243.88 -1234.82 -1225.77 -1216.71 -1207.65 -1198.59 -1189.53 -1180.48 -1171.42 -1162.36 -1153.31 -1144.25 -1135.2 -1126.14 -1117.09 -1108.03 -1098.98 -1089.93 -1080.88 -1071.82 -1062.77 -1053.72 -1044.67 -1035.62 -1026.57 -1017.52 -1008.47 -999.418 -990.369 -981.32 -972.272 -963.224 -954.177 -945.13 -936.083 -927.037 -917.991 -908.946 -899.901 -890.856 -881.81 -872.765 -863.719 -854.673 -845.627 -836.581 -827.534 -818.487 -809.44 -800.393 -791.345 -782.298 -773.25 -764.202 -755.153 -746.104 -737.056 -728.007 -718.957 -709.908 -700.858 -691.808 -682.758 -673.707 -664.657 -655.606 -646.555 -637.503 -628.452 -619.4 -610.348 -601.296 -592.243 -583.191 -574.138 -565.085 -556.031 -546.978 -537.924 -528.87 -519.816 -510.761 -501.707 -492.652 -483.597 -474.541 -465.486 -456.43 -447.374 -438.672 -429.97 -421.268 -412.565 -403.863 -395.16 -386.457 -377.753 -369.05 -360.346 -351.642 -342.938 -334.233 -325.529 -316.824 -308.119 -299.413 -290.708 -282.002 -273.296 -264.59 -255.883 -247.177 -238.47 -229.763 -221.056 -212.348 -203.64 -194.932 -186.224 -177.516 -168.807 -160.098 -151.389 -142.68 -133.97 -125.26 -116.55 -107.84 -99.1299 -90.4192 -81.7084 -72.9973 -64.286 -55.5745 -46.8627 -38.1508 -29.4386 -20.7262 -12.0135 -1771.87 -1763.19 -1754.51 -1745.83 -1737.14 -1728.46 -1719.78 -1711.09 -1702.41 -1693.73 -1685.04 -1676.36 -1667.67 -1658.99 -1650.31 -1641.62 -1632.94 -1624.25 -1615.57 -1606.88 -1598.2 -1589.51 -1580.83 -1572.14 -1563.45 -1554.77 -1546.08 -1537.4 -1528.71 -1520.02 -1511.34 -1502.65 -1493.96 -1485.28 -1476.59 -1467.9 -1459.21 -1450.53 -1441.84 -1433.15 -1424.46 -1415.77 -1407.08 -1398.4 -1389.71 -1381.02 -1372.33 -1363.64 -1354.95 -1346.26 -1337.57 -1328.61 -1319.65 -1310.68 -1301.72 -1292.76 -1283.8 -1274.84 -1265.88 -1256.92 -1247.96 -1239 -1230.04 -1221.08 -1212.13 -1203.17 -1194.21 -1185.25 -1176.3 -1167.34 -1158.39 -1149.43 -1140.48 -1131.52 -1122.57 -1113.61 -1104.66 -1095.71 -1086.75 -1077.8 -1068.85 -1059.9 -1050.95 -1042 -1033.05 -1024.1 -1015.15 -1006.2 -997.25 -988.301 -979.353 -970.406 -961.459 -952.512 -943.565 -934.619 -925.674 -916.728 -907.783 -898.839 -889.895 -880.951 -872.008 -863.064 -854.12 -845.176 -836.232 -827.287 -818.342 -809.397 -800.452 -791.507 -782.561 -773.615 -764.669 -755.722 -746.776 -737.829 -728.882 -719.935 -710.987 -702.039 -693.091 -684.143 -675.195 -666.246 -657.297 -648.348 -639.399 -630.45 -621.5 -612.55 -603.6 -594.649 -585.699 -576.748 -567.797 -558.845 -549.894 -540.942 -531.99 -523.038 -514.086 -505.133 -496.18 -487.227 -478.274 -469.32 -460.366 -451.413 -442.458 -433.848 -425.238 -416.627 -408.016 -399.405 -390.793 -382.182 -373.57 -364.958 -356.346 -347.733 -339.12 -330.507 -321.894 -313.281 -304.667 -296.054 -287.44 -278.825 -270.211 -261.596 -252.981 -244.366 -235.751 -227.135 -218.52 -209.904 -201.287 -192.671 -184.054 -175.437 -166.82 -158.203 -149.586 -140.968 -132.35 -123.732 -115.113 -106.495 -97.876 -89.2569 -80.6377 -72.0182 -63.3985 -54.7786 -46.1585 -37.5381 -28.9176 -20.2968 -11.6758 -1751.88 -1743.3 -1734.72 -1726.13 -1717.55 -1708.97 -1700.38 -1691.8 -1683.21 -1674.63 -1666.04 -1657.46 -1648.87 -1640.29 -1631.7 -1623.12 -1614.53 -1605.95 -1597.36 -1588.78 -1580.19 -1571.6 -1563.02 -1554.43 -1545.84 -1537.25 -1528.67 -1520.08 -1511.49 -1502.9 -1494.32 -1485.73 -1477.14 -1468.55 -1459.96 -1451.37 -1442.78 -1434.19 -1425.61 -1417.02 -1408.43 -1399.84 -1391.25 -1382.66 -1374.06 -1365.47 -1356.88 -1348.29 -1339.7 -1331.11 -1322.52 -1313.66 -1304.79 -1295.93 -1287.07 -1278.21 -1269.35 -1260.49 -1251.63 -1242.77 -1233.92 -1225.06 -1216.2 -1207.34 -1198.49 -1189.63 -1180.77 -1171.92 -1163.06 -1154.21 -1145.35 -1136.5 -1127.64 -1118.79 -1109.94 -1101.08 -1092.23 -1083.38 -1074.53 -1065.68 -1056.83 -1047.98 -1039.12 -1030.28 -1021.43 -1012.58 -1003.73 -994.88 -986.033 -977.185 -968.338 -959.491 -950.645 -941.799 -932.954 -924.109 -915.264 -906.42 -897.576 -888.732 -879.889 -871.047 -862.206 -853.364 -844.522 -835.679 -826.837 -817.994 -809.151 -800.307 -791.464 -782.62 -773.776 -764.932 -756.088 -747.243 -738.398 -729.553 -720.708 -711.862 -703.017 -694.171 -685.324 -676.478 -667.631 -658.785 -649.938 -641.09 -632.243 -623.395 -614.547 -605.699 -596.851 -588.002 -579.153 -570.304 -561.455 -552.605 -543.756 -534.906 -526.055 -517.205 -508.354 -499.504 -490.653 -481.801 -472.95 -464.098 -455.246 -446.394 -437.542 -429.023 -420.504 -411.985 -403.466 -394.946 -386.426 -377.906 -369.386 -360.866 -352.345 -343.824 -335.303 -326.782 -318.26 -309.739 -301.217 -292.694 -284.172 -275.649 -267.127 -258.604 -250.08 -241.557 -233.033 -224.509 -215.985 -207.461 -198.937 -190.412 -181.887 -173.362 -164.836 -156.311 -147.785 -139.259 -130.733 -122.206 -113.68 -105.153 -96.6255 -88.0982 -79.5707 -71.0429 -62.5149 -53.9868 -45.4584 -36.9297 -28.4009 -19.8719 -11.3426 -1731.89 -1723.41 -1714.93 -1706.44 -1697.96 -1689.47 -1680.99 -1672.5 -1664.02 -1655.53 -1647.05 -1638.56 -1630.08 -1621.59 -1613.1 -1604.62 -1596.13 -1587.64 -1579.16 -1570.67 -1562.18 -1553.69 -1545.21 -1536.72 -1528.23 -1519.74 -1511.25 -1502.76 -1494.27 -1485.79 -1477.3 -1468.81 -1460.32 -1451.83 -1443.34 -1434.85 -1426.36 -1417.86 -1409.37 -1400.88 -1392.39 -1383.9 -1375.41 -1366.92 -1358.42 -1349.93 -1341.44 -1332.95 -1324.45 -1315.96 -1307.47 -1298.7 -1289.94 -1281.18 -1272.42 -1263.66 -1254.9 -1246.15 -1237.39 -1228.63 -1219.87 -1211.12 -1202.36 -1193.6 -1184.85 -1176.09 -1167.33 -1158.58 -1149.83 -1141.07 -1132.32 -1123.56 -1114.81 -1106.06 -1097.31 -1088.55 -1079.8 -1071.05 -1062.3 -1053.55 -1044.8 -1036.05 -1027.3 -1018.55 -1009.81 -1001.06 -992.31 -983.562 -974.816 -966.069 -957.323 -948.577 -939.832 -931.087 -922.343 -913.598 -904.855 -896.111 -887.368 -878.626 -869.883 -861.144 -852.404 -843.663 -834.923 -826.182 -817.441 -808.7 -799.959 -791.217 -782.476 -773.734 -764.991 -756.249 -747.506 -738.763 -730.02 -721.277 -712.533 -703.79 -695.046 -686.301 -677.557 -668.812 -660.068 -651.322 -642.577 -633.832 -625.086 -616.34 -607.594 -598.847 -590.101 -581.354 -572.607 -563.859 -555.112 -546.364 -537.616 -528.868 -520.12 -511.371 -502.622 -493.873 -485.124 -476.374 -467.625 -458.875 -450.125 -441.374 -432.624 -424.197 -415.769 -407.342 -398.914 -390.487 -382.059 -373.63 -365.202 -356.773 -348.344 -339.915 -331.486 -323.056 -314.627 -306.197 -297.766 -289.336 -280.905 -272.475 -264.044 -255.612 -247.181 -238.749 -230.317 -221.885 -213.453 -205.021 -196.588 -188.155 -179.722 -171.288 -162.855 -154.421 -145.987 -137.553 -129.118 -120.684 -112.249 -103.814 -95.3785 -86.943 -78.5073 -70.0714 -61.6353 -53.1989 -44.7624 -36.3256 -27.8886 -19.4514 -11.014 -1711.91 -1703.52 -1695.14 -1686.75 -1678.37 -1669.98 -1661.6 -1653.21 -1644.83 -1636.44 -1628.05 -1619.67 -1611.28 -1602.89 -1594.5 -1586.12 -1577.73 -1569.34 -1560.95 -1552.56 -1544.18 -1535.79 -1527.4 -1519.01 -1510.62 -1502.23 -1493.84 -1485.45 -1477.06 -1468.67 -1460.28 -1451.89 -1443.5 -1435.1 -1426.71 -1418.32 -1409.93 -1401.54 -1393.14 -1384.75 -1376.36 -1367.96 -1359.57 -1351.18 -1342.78 -1334.39 -1325.99 -1317.6 -1309.2 -1300.81 -1292.41 -1283.75 -1275.09 -1266.43 -1257.78 -1249.12 -1240.46 -1231.8 -1223.14 -1214.49 -1205.83 -1197.17 -1188.52 -1179.86 -1171.21 -1162.55 -1153.9 -1145.24 -1136.59 -1127.94 -1119.28 -1110.63 -1101.98 -1093.33 -1084.68 -1076.03 -1067.38 -1058.73 -1050.08 -1041.43 -1032.78 -1024.13 -1015.48 -1006.83 -998.185 -989.538 -980.891 -972.245 -963.599 -954.953 -946.308 -937.664 -929.019 -920.375 -911.732 -903.088 -894.445 -885.803 -877.161 -868.519 -859.878 -851.24 -842.602 -833.963 -825.324 -816.685 -808.046 -799.407 -790.767 -782.127 -773.487 -764.847 -756.206 -747.566 -738.925 -730.283 -721.642 -713 -704.359 -695.717 -687.074 -678.432 -669.789 -661.146 -652.503 -643.86 -635.216 -626.572 -617.928 -609.284 -600.64 -591.995 -583.35 -574.705 -566.06 -557.414 -548.768 -540.122 -531.476 -522.83 -514.183 -505.536 -496.889 -488.242 -479.594 -470.946 -462.298 -453.65 -445.002 -436.353 -427.704 -419.369 -411.034 -402.698 -394.363 -386.027 -377.69 -369.354 -361.017 -352.681 -344.343 -336.006 -327.669 -319.331 -310.993 -302.655 -294.317 -285.978 -277.64 -269.301 -260.962 -252.622 -244.283 -235.943 -227.603 -219.263 -210.922 -202.582 -194.241 -185.9 -177.559 -169.217 -160.876 -152.534 -144.192 -135.849 -127.507 -119.164 -110.821 -102.478 -94.1349 -85.7914 -77.4476 -69.1037 -60.7595 -52.4151 -44.0705 -35.7257 -27.3807 -19.0355 -10.6901 -1691.92 -1683.64 -1675.35 -1667.07 -1658.78 -1650.49 -1642.21 -1633.92 -1625.63 -1617.35 -1609.06 -1600.77 -1592.48 -1584.2 -1575.91 -1567.62 -1559.33 -1551.04 -1542.75 -1534.46 -1526.17 -1517.88 -1509.59 -1501.3 -1493.01 -1484.72 -1476.43 -1468.14 -1459.84 -1451.55 -1443.26 -1434.97 -1426.67 -1418.38 -1410.09 -1401.79 -1393.5 -1385.21 -1376.91 -1368.62 -1360.32 -1352.03 -1343.73 -1335.44 -1327.14 -1318.85 -1310.55 -1302.25 -1293.96 -1285.66 -1277.36 -1268.8 -1260.24 -1251.69 -1243.13 -1234.57 -1226.01 -1217.46 -1208.9 -1200.34 -1191.79 -1183.23 -1174.68 -1166.12 -1157.57 -1149.01 -1140.46 -1131.91 -1123.36 -1114.8 -1106.25 -1097.7 -1089.15 -1080.6 -1072.05 -1063.5 -1054.95 -1046.4 -1037.85 -1029.3 -1020.75 -1012.21 -1003.66 -995.111 -986.565 -978.019 -969.473 -960.928 -952.383 -943.838 -935.294 -926.75 -918.206 -909.663 -901.121 -892.578 -884.037 -875.495 -866.954 -858.413 -849.873 -841.336 -832.8 -824.263 -815.726 -807.188 -798.651 -790.113 -781.575 -773.037 -764.499 -755.96 -747.421 -738.882 -730.343 -721.803 -713.264 -704.724 -696.184 -687.643 -679.103 -670.562 -662.021 -653.48 -644.938 -636.396 -627.855 -619.312 -610.77 -602.228 -593.685 -585.142 -576.599 -568.055 -559.512 -550.968 -542.424 -533.879 -525.335 -516.79 -508.245 -499.7 -491.155 -482.609 -474.063 -465.517 -456.971 -448.425 -439.878 -431.331 -422.784 -414.541 -406.297 -398.054 -389.81 -381.566 -373.322 -365.077 -356.833 -348.588 -340.343 -332.097 -323.852 -315.606 -307.36 -299.114 -290.868 -282.621 -274.375 -266.128 -257.881 -249.633 -241.386 -233.138 -224.89 -216.642 -208.394 -200.145 -191.896 -183.647 -175.398 -167.149 -158.899 -150.649 -142.399 -134.149 -125.899 -117.648 -109.397 -101.146 -92.8947 -84.6433 -76.3916 -68.1397 -59.8876 -51.6353 -43.3828 -35.1301 -26.8772 -18.624 -10.3707 -1671.94 -1663.75 -1655.57 -1647.38 -1639.19 -1631.01 -1622.82 -1614.63 -1606.44 -1598.25 -1590.07 -1581.88 -1573.69 -1565.5 -1557.31 -1549.12 -1540.93 -1532.74 -1524.55 -1516.36 -1508.17 -1499.98 -1491.79 -1483.59 -1475.4 -1467.21 -1459.02 -1450.82 -1442.63 -1434.44 -1426.24 -1418.05 -1409.85 -1401.66 -1393.47 -1385.27 -1377.07 -1368.88 -1360.68 -1352.49 -1344.29 -1336.09 -1327.9 -1319.7 -1311.5 -1303.3 -1295.11 -1286.91 -1278.71 -1270.51 -1262.31 -1253.85 -1245.39 -1236.94 -1228.48 -1220.02 -1211.57 -1203.11 -1194.66 -1186.2 -1177.75 -1169.29 -1160.84 -1152.38 -1143.93 -1135.48 -1127.02 -1118.57 -1110.12 -1101.67 -1093.22 -1084.77 -1076.32 -1067.87 -1059.42 -1050.97 -1042.52 -1034.07 -1025.62 -1017.18 -1008.73 -1000.28 -991.837 -983.391 -974.945 -966.5 -958.055 -949.61 -941.166 -932.723 -924.279 -915.837 -907.394 -898.952 -890.51 -882.069 -873.628 -865.187 -856.747 -848.307 -839.868 -831.433 -822.998 -814.563 -806.127 -797.691 -789.256 -780.82 -772.383 -763.947 -755.51 -747.073 -738.636 -730.198 -721.761 -713.323 -704.885 -696.447 -688.008 -679.569 -671.13 -662.691 -654.252 -645.812 -637.373 -628.933 -620.492 -612.052