<?xml version="1.0"?> 
<VTKFile type="StructuredGrid" version="0.1"> 
<StructuredGrid WholeExtent="0 200 0 200 0 0"> 
<Piece Extent="0 200 0 200 0 0"> 
<PointData Scalars="Stress components">
<DataArray type="Float32" Name="sigma_xx" format="ascii" NumberOfComponents="1"> 
-2012.64 -2001.5 -1990.43 -1979.43 -1968.49 -1957.62 -1946.81 -1936.07 -1925.39 -1914.76 -1904.2 -1893.69 -1883.24 -1872.83 -1862.47 -1852.16 -1841.88 -1831.64 -1821.44 -1811.26 -1801.1 -1790.95 -1780.83 -1770.71 -1760.61 -1750.53 -1740.45 -1730.39 -1720.33 -1710.28 -1700.24 -1690.21 -1680.18 -1670.16 -1660.14 -1650.12 -1640.11 -1630.1 -1620.1 -1610.09 -1600.08 -1590.08 -1580.07 -1570.06 -1560.06 -1550.05 -1540.04 -1530.04 -1520.03 -1510.03 -1500.02 -1490.02 -1480.01 -1470.01 -1460 -1450 -1440 -1429.99 -1419.99 -1409.99 -1399.99 -1389.99 -1379.99 -1369.99 -1359.99 -1349.99 -1339.99 -1329.99 -1319.99 -1310 -1300 -1290 -1280 -1270 -1260 -1250 -1240 -1230 -1220 -1210 -1200.01 -1190.01 -1180.01 -1170.01 -1160.01 -1150.01 -1140.01 -1130.01 -1120 -1110 -1100 -1090 -1080 -1070 -1060 -1050 -1040 -1030 -1020 -1010 -1000 -990.001 -980 -970 -959.999 -949.998 -939.998 -929.997 -919.996 -909.995 -899.994 -889.994 -879.993 -869.992 -859.992 -849.991 -839.991 -829.991 -819.991 -809.991 -799.991 -789.992 -779.993 -769.994 -759.996 -749.998 -740 -730.001 -720.004 -710.006 -700.008 -690.01 -680.012 -670.014 -660.015 -650.016 -640.017 -630.018 -620.018 -610.018 -600.017 -590.015 -580.013 -570.01 -560.006 -550.002 -539.998 -529.993 -519.988 -509.982 -499.976 -489.971 -479.965 -469.959 -459.953 -449.948 -439.944 -429.939 -419.936 -409.933 -399.931 -389.931 -379.931 -369.931 -359.931 -349.931 -339.929 -329.926 -319.921 -309.913 -299.902 -289.887 -279.868 -269.843 -259.813 -249.777 -239.734 -229.683 -219.623 -209.554 -199.476 -189.387 -179.288 -169.18 -159.065 -148.944 -138.822 -128.701 -118.584 -108.477 -98.3834 -88.309 -78.2598 -68.242 -58.2626 -48.3289 -38.449 -28.6312 -18.8846 -9.21865 0.356588 -1992.01 -1981.03 -1970.12 -1959.26 -1948.47 -1937.74 -1927.08 -1916.47 -1905.92 -1895.43 -1884.99 -1874.61 -1864.27 -1853.99 -1843.75 -1833.55 -1823.39 -1813.26 -1803.16 -1793.09 -1783.04 -1773.01 -1762.99 -1752.98 -1742.98 -1733 -1723.03 -1713.07 -1703.11 -1693.17 -1683.23 -1673.3 -1663.37 -1653.45 -1643.53 -1633.62 -1623.71 -1613.8 -1603.89 -1593.98 -1584.08 -1574.17 -1564.26 -1554.36 -1544.45 -1534.55 -1524.64 -1514.73 -1504.83 -1494.92 -1485.02 -1475.11 -1465.21 -1455.31 -1445.4 -1435.5 -1425.6 -1415.7 -1405.79 -1395.89 -1385.99 -1376.09 -1366.19 -1356.29 -1346.39 -1336.49 -1326.59 -1316.69 -1306.8 -1296.9 -1287 -1277.1 -1267.2 -1257.3 -1247.4 -1237.5 -1227.6 -1217.7 -1207.8 -1197.9 -1188 -1178.1 -1168.2 -1158.3 -1148.4 -1138.5 -1128.6 -1118.7 -1108.8 -1098.9 -1089 -1079.1 -1069.2 -1059.3 -1049.4 -1039.5 -1029.6 -1019.7 -1009.8 -999.902 -990.001 -980.101 -970.2 -960.3 -950.399 -940.499 -930.598 -920.697 -910.797 -900.896 -890.995 -881.094 -871.194 -861.293 -851.393 -841.492 -831.592 -821.692 -811.791 -801.892 -791.992 -782.093 -772.194 -762.295 -752.396 -742.498 -732.599 -722.701 -712.803 -702.905 -693.007 -683.109 -673.21 -663.312 -653.414 -643.515 -633.616 -623.716 -613.817 -603.916 -594.015 -584.114 -574.212 -564.309 -554.406 -544.502 -534.598 -524.694 -514.789 -504.884 -494.979 -485.073 -475.168 -465.262 -455.357 -445.452 -435.547 -425.643 -415.74 -405.837 -395.935 -386.034 -376.134 -366.234 -356.334 -346.433 -336.532 -326.628 -316.723 -306.816 -296.905 -286.991 -277.072 -267.149 -257.221 -247.287 -237.346 -227.397 -217.441 -207.477 -197.503 -187.519 -177.525 -167.523 -157.514 -147.5 -137.484 -127.468 -117.457 -107.454 -97.4637 -87.492 -77.5441 -67.6263 -57.7451 -47.908 -38.1225 -28.3969 -18.7399 -9.16095 0.330296 -1971.38 -1960.57 -1949.81 -1939.1 -1928.46 -1917.88 -1907.35 -1896.88 -1886.46 -1876.1 -1865.79 -1855.53 -1845.32 -1835.15 -1825.03 -1814.94 -1804.89 -1794.88 -1784.89 -1774.93 -1764.99 -1755.06 -1745.15 -1735.24 -1725.35 -1715.48 -1705.61 -1695.75 -1685.9 -1676.06 -1666.22 -1656.39 -1646.56 -1636.74 -1626.93 -1617.11 -1607.3 -1597.49 -1587.69 -1577.88 -1568.07 -1558.27 -1548.46 -1538.65 -1528.85 -1519.04 -1509.24 -1499.43 -1489.63 -1479.82 -1470.02 -1460.21 -1450.41 -1440.6 -1430.8 -1421 -1411.2 -1401.4 -1391.59 -1381.79 -1371.99 -1362.19 -1352.39 -1342.59 -1332.79 -1322.99 -1313.19 -1303.4 -1293.6 -1283.8 -1274 -1264.2 -1254.4 -1244.6 -1234.8 -1225 -1215.2 -1205.4 -1195.6 -1185.8 -1176 -1166.2 -1156.4 -1146.6 -1136.8 -1127 -1117.2 -1107.4 -1097.6 -1087.8 -1078 -1068.2 -1058.4 -1048.6 -1038.8 -1029 -1019.2 -1009.4 -999.602 -989.801 -980.001 -970.201 -960.4 -950.6 -940.799 -930.999 -921.198 -911.398 -901.597 -891.796 -881.996 -872.195 -862.395 -852.594 -842.793 -832.993 -823.193 -813.392 -803.592 -793.792 -783.993 -774.193 -764.394 -754.595 -744.796 -734.997 -725.199 -715.401 -705.602 -695.804 -686.006 -676.207 -666.409 -656.611 -646.812 -637.013 -627.214 -617.415 -607.615 -597.815 -588.014 -578.213 -568.411 -558.609 -548.806 -539.003 -529.199 -519.395 -509.59 -499.786 -489.981 -480.176 -470.371 -460.565 -450.761 -440.956 -431.151 -421.347 -411.544 -401.741 -391.939 -382.138 -372.338 -362.537 -352.737 -342.936 -333.134 -323.331 -313.526 -303.718 -293.908 -284.094 -274.277 -264.455 -254.628 -244.796 -234.958 -225.112 -215.26 -205.399 -195.529 -185.65 -175.762 -165.866 -155.963 -146.055 -136.144 -126.234 -116.328 -106.429 -96.5428 -86.6736 -76.8271 -67.0092 -57.2264 -47.4858 -37.7948 -28.1615 -18.5944 -9.10255 0.304463 -1950.77 -1940.11 -1929.51 -1918.95 -1908.46 -1898.01 -1887.62 -1877.29 -1867 -1856.77 -1846.59 -1836.45 -1826.36 -1816.31 -1806.31 -1796.34 -1786.4 -1776.5 -1766.62 -1756.77 -1746.93 -1737.11 -1727.31 -1717.51 -1707.73 -1697.95 -1688.19 -1678.43 -1668.68 -1658.94 -1649.21 -1639.48 -1629.76 -1620.04 -1610.32 -1600.61 -1590.9 -1581.19 -1571.48 -1561.78 -1552.07 -1542.36 -1532.66 -1522.95 -1513.25 -1503.54 -1493.83 -1484.13 -1474.42 -1464.72 -1455.01 -1445.31 -1435.61 -1425.9 -1416.2 -1406.5 -1396.8 -1387.1 -1377.39 -1367.69 -1357.99 -1348.29 -1338.59 -1328.89 -1319.19 -1309.49 -1299.8 -1290.1 -1280.4 -1270.7 -1261 -1251.3 -1241.6 -1231.9 -1222.2 -1212.5 -1202.8 -1193.1 -1183.4 -1173.7 -1164 -1154.3 -1144.6 -1134.9 -1125.2 -1115.5 -1105.8 -1096.1 -1086.4 -1076.7 -1067 -1057.3 -1047.6 -1037.9 -1028.2 -1018.5 -1008.8 -999.101 -989.401 -979.701 -970.001 -960.301 -950.6 -940.9 -931.2 -921.499 -911.799 -902.098 -892.398 -882.697 -872.997 -863.296 -853.595 -843.895 -834.194 -824.494 -814.794 -805.093 -795.393 -785.693 -775.993 -766.294 -756.594 -746.895 -737.196 -727.497 -717.799 -708.1 -698.402 -688.703 -679.005 -669.306 -659.608 -649.909 -640.211 -630.512 -620.813 -611.113 -601.414 -591.713 -582.013 -572.312 -562.61 -552.908 -543.206 -533.503 -523.799 -514.096 -504.392 -494.687 -484.983 -475.278 -465.573 -455.869 -446.164 -436.459 -426.755 -417.051 -407.348 -397.645 -387.943 -378.242 -368.541 -358.84 -349.14 -339.438 -329.736 -320.033 -310.328 -300.621 -290.911 -281.198 -271.481 -261.761 -252.036 -242.305 -232.569 -222.827 -213.077 -203.32 -193.555 -183.781 -173.998 -164.208 -154.411 -144.608 -134.804 -124.999 -115.198 -105.403 -95.6205 -85.8539 -76.1087 -66.3908 -56.7064 -47.0623 -37.466 -27.9251 -18.4479 -9.04346 0.27909 -1930.17 -1919.67 -1909.21 -1898.81 -1888.46 -1878.15 -1867.9 -1857.7 -1847.55 -1837.44 -1827.39 -1817.37 -1807.41 -1797.48 -1787.59 -1777.73 -1767.91 -1758.12 -1748.35 -1738.61 -1728.88 -1719.17 -1709.47 -1699.78 -1690.1 -1680.43 -1670.77 -1661.11 -1651.47 -1641.83 -1632.2 -1622.57 -1612.95 -1603.33 -1593.72 -1584.1 -1574.49 -1564.88 -1555.28 -1545.67 -1536.07 -1526.46 -1516.85 -1507.25 -1497.64 -1488.04 -1478.43 -1468.83 -1459.22 -1449.62 -1440.01 -1430.41 -1420.81 -1411.2 -1401.6 -1392 -1382.4 -1372.8 -1363.19 -1353.59 -1343.99 -1334.39 -1324.79 -1315.19 -1305.59 -1296 -1286.4 -1276.8 -1267.2 -1257.6 -1248 -1238.4 -1228.8 -1219.2 -1209.6 -1200 -1190.4 -1180.8 -1171.2 -1161.6 -1152 -1142.4 -1132.8 -1123.2 -1113.6 -1104 -1094.4 -1084.8 -1075.2 -1065.6 -1056 -1046.4 -1036.8 -1027.2 -1017.6 -1008 -998.401 -988.801 -979.201 -969.601 -960.001 -950.401 -940.8 -931.2 -921.6 -912 -902.399 -892.799 -883.198 -873.598 -863.997 -854.397 -844.796 -835.196 -825.595 -815.995 -806.394 -796.794 -787.194 -777.594 -767.994 -758.394 -748.795 -739.196 -729.596 -719.997 -710.398 -700.8 -691.201 -681.602 -672.004 -662.405 -652.807 -643.208 -633.609 -624.01 -614.411 -604.812 -595.212 -585.612 -576.012 -566.411 -556.81 -547.208 -537.606 -528.003 -518.4 -508.797 -499.193 -489.589 -479.985 -470.381 -460.776 -451.172 -441.567 -431.963 -422.359 -412.755 -403.152 -393.549 -383.947 -374.345 -364.744 -355.143 -345.542 -335.941 -326.339 -316.735 -307.13 -297.523 -287.914 -278.301 -268.686 -259.067 -249.443 -239.814 -230.181 -220.541 -210.895 -201.242 -191.581 -181.911 -172.234 -162.549 -152.858 -143.161 -133.462 -123.763 -114.066 -104.376 -94.697 -85.0328 -75.389 -65.771 -56.185 -46.6376 -37.136 -27.6876 -18.3006 -8.98366 0.254175 -1909.58 -1899.23 -1888.93 -1878.67 -1868.46 -1858.3 -1848.19 -1838.12 -1828.1 -1818.12 -1808.19 -1798.3 -1788.45 -1778.64 -1768.87 -1759.13 -1749.42 -1739.74 -1730.08 -1720.45 -1710.83 -1701.22 -1691.63 -1682.04 -1672.47 -1662.9 -1653.35 -1643.8 -1634.26 -1624.72 -1615.19 -1605.66 -1596.14 -1586.62 -1577.11 -1567.6 -1558.09 -1548.58 -1539.07 -1529.57 -1520.06 -1510.56 -1501.05 -1491.54 -1482.04 -1472.53 -1463.03 -1453.52 -1444.02 -1434.52 -1425.01 -1415.51 -1406 -1396.5 -1387 -1377.5 -1368 -1358.5 -1348.99 -1339.49 -1329.99 -1320.49 -1310.99 -1301.5 -1292 -1282.5 -1273 -1263.5 -1254 -1244.5 -1235 -1225.5 -1216 -1206.5 -1197 -1187.5 -1178 -1168.5 -1159 -1149.5 -1140 -1130.5 -1121 -1111.5 -1102 -1092.5 -1083 -1073.5 -1064 -1054.5 -1045 -1035.5 -1026 -1016.5 -1007 -997.501 -988.001 -978.501 -969.001 -959.501 -950.001 -940.501 -931 -921.5 -912 -902.5 -893 -883.499 -873.999 -864.498 -854.998 -845.497 -835.997 -826.497 -816.996 -807.496 -797.995 -788.495 -778.995 -769.495 -759.995 -750.495 -740.995 -731.496 -721.996 -712.497 -702.998 -693.499 -684 -674.502 -665.003 -655.504 -646.005 -636.507 -627.008 -617.509 -608.01 -598.51 -589.011 -579.511 -570.01 -560.51 -551.009 -541.507 -532.005 -522.503 -513 -503.498 -493.994 -484.491 -474.987 -465.483 -455.979 -446.475 -436.971 -427.467 -417.963 -408.459 -398.956 -389.453 -379.951 -370.449 -360.947 -351.446 -341.945 -332.443 -322.941 -313.437 -303.932 -294.426 -284.917 -275.405 -265.89 -256.372 -246.85 -237.323 -227.792 -218.255 -208.712 -199.162 -189.606 -180.041 -170.469 -160.89 -151.304 -141.713 -132.12 -122.526 -112.934 -103.348 -93.7722 -84.2105 -74.6679 -65.1499 -55.6623 -46.2117 -36.8048 -27.4491 -18.1524 -8.92317 0.22972 -1889 -1878.8 -1868.65 -1858.54 -1848.48 -1838.46 -1828.48 -1818.55 -1808.66 -1798.81 -1789 -1779.23 -1769.51 -1759.81 -1750.16 -1740.53 -1730.93 -1721.36 -1711.82 -1702.29 -1692.78 -1683.28 -1673.79 -1664.31 -1654.84 -1645.38 -1635.93 -1626.48 -1617.04 -1607.61 -1598.18 -1588.76 -1579.33 -1569.92 -1560.5 -1551.09 -1541.68 -1532.28 -1522.87 -1513.46 -1504.06 -1494.65 -1485.25 -1475.84 -1466.44 -1457.03 -1447.63 -1438.22 -1428.82 -1419.41 -1410.01 -1400.61 -1391.2 -1381.8 -1372.4 -1363 -1353.6 -1344.2 -1334.8 -1325.4 -1315.99 -1306.6 -1297.2 -1287.8 -1278.4 -1269 -1259.6 -1250.2 -1240.8 -1231.4 -1222 -1212.6 -1203.2 -1193.8 -1184.4 -1175 -1165.6 -1156.2 -1146.8 -1137.4 -1128 -1118.6 -1109.2 -1099.8 -1090.4 -1081 -1071.6 -1062.2 -1052.8 -1043.4 -1034 -1024.6 -1015.2 -1005.8 -996.4 -987 -977.6 -968.2 -958.8 -949.401 -940.001 -930.601 -921.2 -911.8 -902.4 -893 -883.6 -874.2 -864.799 -855.399 -845.999 -836.598 -827.198 -817.797 -808.397 -798.996 -789.596 -780.196 -770.796 -761.395 -751.995 -742.595 -733.196 -723.796 -714.397 -704.997 -695.598 -686.199 -676.8 -667.401 -658.002 -648.603 -639.204 -629.805 -620.406 -611.007 -601.608 -592.209 -582.809 -573.409 -564.009 -554.609 -545.208 -535.807 -526.405 -517.003 -507.601 -498.198 -488.796 -479.392 -469.989 -460.585 -451.182 -441.778 -432.374 -422.97 -413.566 -404.163 -394.759 -385.357 -375.954 -366.552 -357.151 -347.749 -338.348 -328.946 -319.543 -310.139 -300.735 -291.328 -281.919 -272.508 -263.095 -253.678 -244.257 -234.832 -225.403 -215.969 -206.529 -197.083 -187.63 -178.171 -168.704 -159.23 -149.749 -140.264 -130.776 -121.287 -111.8 -102.319 -92.8461 -83.3868 -73.9455 -64.5274 -55.1383 -45.7844 -36.4724 -27.2095 -18.0033 -8.86199 0.205724 -1868.43 -1858.39 -1848.39 -1838.42 -1828.5 -1818.62 -1808.78 -1798.98 -1789.22 -1779.5 -1769.81 -1760.17 -1750.56 -1740.99 -1731.44 -1721.93 -1712.45 -1702.99 -1693.55 -1684.13 -1674.73 -1665.34 -1655.95 -1646.58 -1637.21 -1627.86 -1618.51 -1609.17 -1599.83 -1590.5 -1581.17 -1571.85 -1562.53 -1553.21 -1543.9 -1534.59 -1525.28 -1515.97 -1506.66 -1497.36 -1488.05 -1478.75 -1469.44 -1460.14 -1450.83 -1441.53 -1432.22 -1422.92 -1413.61 -1404.31 -1395.01 -1385.71 -1376.4 -1367.1 -1357.8 -1348.5 -1339.2 -1329.9 -1320.6 -1311.3 -1302 -1292.7 -1283.4 -1274.1 -1264.8 -1255.5 -1246.2 -1236.9 -1227.6 -1218.3 -1209 -1199.7 -1190.4 -1181.1 -1171.8 -1162.5 -1153.2 -1143.9 -1134.6 -1125.3 -1116 -1106.7 -1097.4 -1088.1 -1078.8 -1069.5 -1060.2 -1050.9 -1041.6 -1032.3 -1023 -1013.7 -1004.4 -995.1 -985.8 -976.5 -967.2 -957.9 -948.6 -939.3 -930 -920.7 -911.401 -902.101 -892.8 -883.5 -874.2 -864.9 -855.6 -846.3 -836.999 -827.699 -818.399 -809.098 -799.798 -790.497 -781.197 -771.897 -762.596 -753.296 -743.996 -734.696 -725.396 -716.096 -706.797 -697.497 -688.198 -678.898 -669.599 -660.3 -651.001 -641.702 -632.403 -623.104 -613.805 -604.506 -595.207 -585.907 -576.608 -567.308 -558.008 -548.708 -539.407 -530.106 -520.805 -511.503 -502.202 -492.899 -483.597 -474.294 -464.991 -455.688 -446.384 -437.081 -427.777 -418.473 -409.17 -399.866 -390.563 -381.26 -371.958 -362.656 -353.354 -344.052 -334.75 -325.448 -316.145 -306.842 -297.537 -288.23 -278.922 -269.612 -260.299 -250.983 -241.664 -232.341 -223.014 -213.682 -204.346 -195.003 -185.655 -176.299 -166.937 -157.569 -148.194 -138.814 -129.432 -120.048 -110.666 -101.288 -91.9186 -82.5617 -73.2217 -63.9036 -54.613 -45.356 -36.1389 -26.9688 -17.8533 -8.8001 0.182187 -1847.87 -1837.98 -1828.13 -1818.31 -1808.53 -1798.79 -1789.08 -1779.41 -1769.78 -1760.19 -1750.63 -1741.11 -1731.62 -1722.16 -1712.73 -1703.34 -1693.96 -1684.62 -1675.29 -1665.98 -1656.68 -1647.39 -1638.12 -1628.85 -1619.59 -1610.34 -1601.09 -1591.85 -1582.61 -1573.39 -1564.16 -1554.94 -1545.72 -1536.51 -1527.29 -1518.08 -1508.87 -1499.67 -1490.46 -1481.25 -1472.05 -1462.84 -1453.64 -1444.43 -1435.23 -1426.02 -1416.82 -1407.62 -1398.41 -1389.21 -1380.01 -1370.8 -1361.6 -1352.4 -1343.2 -1334 -1324.8 -1315.6 -1306.4 -1297.2 -1288 -1278.8 -1269.6 -1260.4 -1251.2 -1242 -1232.8 -1223.6 -1214.4 -1205.2 -1196 -1186.8 -1177.6 -1168.4 -1159.2 -1150 -1140.8 -1131.6 -1122.4 -1113.2 -1104 -1094.8 -1085.6 -1076.4 -1067.2 -1058 -1048.8 -1039.6 -1030.4 -1021.2 -1012 -1002.8 -993.599 -984.399 -975.199 -966 -956.8 -947.6 -938.4 -929.2 -920 -910.8 -901.601 -892.401 -883.201 -874.001 -864.801 -855.601 -846.4 -837.2 -828 -818.8 -809.599 -800.399 -791.199 -781.998 -772.798 -763.597 -754.397 -745.197 -735.997 -726.796 -717.596 -708.397 -699.197 -689.997 -680.797 -671.598 -662.399 -653.199 -644 -634.801 -625.602 -616.403 -607.204 -598.004 -588.805 -579.606 -570.406 -561.207 -552.007 -542.807 -533.606 -524.406 -515.205 -506.004 -496.802 -487.6 -478.398 -469.195 -459.993 -450.79 -441.587 -432.383 -423.18 -413.977 -404.773 -395.57 -386.367 -377.164 -367.961 -358.759 -349.557 -340.355 -331.153 -321.95 -312.747 -303.544 -294.339 -285.133 -275.925 -266.715 -257.503 -248.288 -239.071 -229.85 -220.625 -211.396 -202.162 -192.923 -183.678 -174.428 -165.171 -155.907 -146.638 -137.364 -128.086 -118.807 -109.53 -100.256 -90.9899 -81.7353 -72.4965 -63.2784 -54.0864 -44.9262 -35.8042 -26.7272 -17.7024 -8.73752 0.159109 -1827.32 -1817.58 -1807.88 -1798.2 -1788.56 -1778.96 -1769.39 -1759.85 -1750.35 -1740.88 -1731.45 -1722.05 -1712.68 -1703.34 -1694.03 -1684.74 -1675.48 -1666.24 -1657.02 -1647.82 -1638.63 -1629.45 -1620.28 -1611.12 -1601.96 -1592.81 -1583.67 -1574.53 -1565.4 -1556.27 -1547.15 -1538.03 -1528.91 -1519.8 -1510.69 -1501.58 -1492.47 -1483.36 -1474.26 -1465.15 -1456.05 -1446.94 -1437.84 -1428.73 -1419.63 -1410.52 -1401.42 -1392.31 -1383.21 -1374.11 -1365 -1355.9 -1346.8 -1337.7 -1328.6 -1319.5 -1310.4 -1301.3 -1292.2 -1283.1 -1274 -1264.9 -1255.8 -1246.7 -1237.6 -1228.5 -1219.4 -1210.3 -1201.2 -1192.1 -1183 -1173.9 -1164.8 -1155.7 -1146.6 -1137.5 -1128.4 -1119.3 -1110.2 -1101.1 -1092 -1082.9 -1073.8 -1064.7 -1055.6 -1046.5 -1037.4 -1028.3 -1019.2 -1010.1 -1001 -991.899 -982.799 -973.699 -964.599 -955.499 -946.399 -937.299 -928.2 -919.1 -910 -900.9 -891.801 -882.701 -873.601 -864.501 -855.401 -846.301 -837.201 -828.101 -819.001 -809.9 -800.8 -791.7 -782.599 -773.499 -764.399 -755.298 -746.198 -737.097 -727.997 -718.897 -709.797 -700.697 -691.597 -682.497 -673.397 -664.298 -655.198 -646.099 -636.999 -627.9 -618.801 -609.701 -600.602 -591.503 -582.404 -573.304 -564.205 -555.106 -546.006 -536.906 -527.806 -518.705 -509.605 -500.504 -491.402 -482.301 -473.199 -464.097 -454.995 -445.892 -436.789 -427.686 -418.583 -409.48 -400.377 -391.273 -382.17 -373.067 -363.965 -354.862 -345.76 -336.658 -327.555 -318.453 -309.349 -300.246 -291.141 -282.035 -272.927 -263.818 -254.707 -245.594 -236.477 -227.358 -218.235 -209.109 -199.978 -190.842 -181.702 -172.556 -163.403 -154.245 -145.081 -135.912 -126.74 -117.566 -108.392 -99.2228 -90.0599 -80.9076 -71.77 -62.6519 -53.5584 -44.4952 -35.4683 -26.4844 -17.5506 -8.67425 0.13649 -1806.78 -1797.19 -1787.63 -1778.1 -1768.6 -1759.14 -1749.7 -1740.29 -1730.92 -1721.58 -1712.27 -1702.99 -1693.74 -1684.51 -1675.32 -1666.15 -1657 -1647.87 -1638.76 -1629.67 -1620.58 -1611.51 -1602.45 -1593.39 -1584.34 -1575.29 -1566.25 -1557.22 -1548.19 -1539.16 -1530.14 -1521.12 -1512.11 -1503.09 -1494.08 -1485.07 -1476.07 -1467.06 -1458.05 -1449.05 -1440.04 -1431.04 -1422.03 -1413.03 -1404.02 -1395.02 -1386.02 -1377.01 -1368.01 -1359.01 -1350 -1341 -1332 -1323 -1314 -1305 -1296 -1287 -1278 -1269 -1260 -1251 -1242 -1233 -1224 -1215 -1206 -1197 -1188 -1179 -1170 -1161 -1152 -1143 -1134 -1125 -1116 -1107 -1098 -1089 -1080 -1071 -1062 -1053 -1044 -1035 -1026 -1017 -1008 -998.999 -989.998 -980.998 -971.998 -962.998 -953.999 -944.999 -935.999 -926.999 -917.999 -909 -900 -891 -882.001 -873.001 -864.001 -855.001 -846.001 -837.001 -828.001 -819.001 -810.001 -801.001 -792.001 -783 -774 -765 -755.999 -746.999 -737.999 -728.998 -719.998 -710.997 -701.997 -692.997 -683.997 -674.997 -665.997 -656.997 -647.998 -638.998 -629.998 -620.999 -612 -603 -594.001 -585.002 -576.002 -567.003 -558.004 -549.004 -540.005 -531.005 -522.005 -513.005 -504.005 -495.004 -486.003 -477.002 -468 -458.999 -449.996 -440.994 -431.992 -422.989 -413.986 -404.983 -395.98 -386.977 -377.974 -368.971 -359.968 -350.965 -341.963 -332.96 -323.958 -314.955 -305.952 -296.948 -287.943 -278.937 -269.93 -260.922 -251.911 -242.899 -233.884 -224.866 -215.846 -206.822 -197.794 -188.761 -179.725 -170.683 -161.635 -152.582 -143.523 -134.459 -125.392 -116.323 -107.254 -98.1883 -89.1286 -80.0786 -71.0422 -62.0241 -53.0292 -44.0629 -35.1313 -26.2407 -17.3979 -8.61028 0.11433 -1786.24 -1776.81 -1767.4 -1758.01 -1748.65 -1739.32 -1730.02 -1720.74 -1711.5 -1702.28 -1693.09 -1683.93 -1674.8 -1665.7 -1656.61 -1647.56 -1638.52 -1629.5 -1620.5 -1611.51 -1602.54 -1593.57 -1584.61 -1575.66 -1566.71 -1557.77 -1548.83 -1539.9 -1530.98 -1522.05 -1513.13 -1504.22 -1495.3 -1486.39 -1477.48 -1468.57 -1459.66 -1450.75 -1441.85 -1432.94 -1424.04 -1415.13 -1406.23 -1397.32 -1388.42 -1379.52 -1370.61 -1361.71 -1352.81 -1343.9 -1335 -1326.1 -1317.2 -1308.3 -1299.4 -1290.5 -1281.6 -1272.7 -1263.8 -1254.9 -1246 -1237.1 -1228.2 -1219.3 -1210.4 -1201.5 -1192.6 -1183.7 -1174.8 -1165.9 -1157 -1148.1 -1139.2 -1130.3 -1121.4 -1112.5 -1103.6 -1094.7 -1085.8 -1076.9 -1068 -1059.1 -1050.2 -1041.3 -1032.4 -1023.5 -1014.6 -1005.7 -996.798 -987.898 -978.998 -970.098 -961.198 -952.298 -943.398 -934.498 -925.599 -916.699 -907.799 -898.9 -890 -881.1 -872.201 -863.301 -854.401 -845.501 -836.602 -827.702 -818.802 -809.902 -801.002 -792.102 -783.201 -774.301 -765.401 -756.501 -747.6 -738.7 -729.799 -720.899 -711.998 -703.098 -694.198 -685.297 -676.397 -667.497 -658.597 -649.697 -640.797 -631.897 -622.998 -614.098 -605.198 -596.299 -587.4 -578.5 -569.601 -560.702 -551.802 -542.903 -534.004 -525.104 -516.204 -507.304 -498.404 -489.504 -480.603 -471.703 -462.801 -453.9 -444.998 -436.096 -427.194 -418.292 -409.389 -400.486 -391.583 -382.68 -373.777 -364.874 -355.971 -347.068 -338.166 -329.263 -320.36 -311.457 -302.554 -293.65 -284.745 -275.839 -266.933 -258.025 -249.115 -240.204 -231.29 -222.374 -213.456 -204.534 -195.609 -186.68 -177.747 -168.81 -159.867 -150.918 -141.964 -133.006 -124.043 -115.079 -106.115 -97.1526 -88.196 -79.2482 -70.313 -61.3949 -52.4986 -43.6294 -34.7931 -25.9958 -17.2443 -8.54561 0.0926297 -1765.73 -1756.44 -1747.17 -1737.93 -1728.71 -1719.51 -1710.34 -1701.2 -1692.08 -1682.99 -1673.92 -1664.88 -1655.87 -1646.88 -1637.91 -1628.97 -1620.04 -1611.13 -1602.24 -1593.36 -1584.49 -1575.63 -1566.78 -1557.93 -1549.09 -1540.25 -1531.42 -1522.59 -1513.76 -1504.94 -1496.12 -1487.31 -1478.5 -1469.68 -1460.87 -1452.07 -1443.26 -1434.45 -1425.65 -1416.84 -1408.03 -1399.23 -1390.43 -1381.62 -1372.82 -1364.01 -1355.21 -1346.41 -1337.6 -1328.8 -1320 -1311.2 -1302.4 -1293.6 -1284.8 -1276 -1267.2 -1258.4 -1249.6 -1240.8 -1232 -1223.2 -1214.4 -1205.6 -1196.8 -1188 -1179.2 -1170.4 -1161.6 -1152.8 -1144 -1135.2 -1126.4 -1117.6 -1108.8 -1100 -1091.2 -1082.4 -1073.6 -1064.8 -1056 -1047.2 -1038.4 -1029.6 -1020.8 -1012 -1003.2 -994.398 -985.598 -976.798 -967.997 -959.197 -950.397 -941.598 -932.798 -923.998 -915.198 -906.399 -897.599 -888.799 -880 -871.2 -862.401 -853.601 -844.801 -836.002 -827.202 -818.402 -809.602 -800.802 -792.002 -783.202 -774.402 -765.602 -756.802 -748.001 -739.201 -730.4 -721.6 -712.799 -703.999 -695.198 -686.398 -677.597 -668.797 -659.997 -651.197 -642.396 -633.596 -624.797 -615.997 -607.197 -598.397 -589.598 -580.798 -571.999 -563.2 -554.4 -545.601 -536.802 -528.003 -519.203 -510.404 -501.604 -492.804 -484.004 -475.204 -466.403 -457.603 -448.801 -440 -431.198 -422.396 -413.594 -404.792 -395.989 -387.187 -378.384 -369.581 -360.778 -351.975 -343.172 -334.369 -325.566 -316.763 -307.959 -299.156 -290.352 -281.547 -272.742 -263.935 -255.128 -246.319 -237.509 -228.697 -219.882 -211.066 -202.246 -193.424 -184.599 -175.769 -166.936 -158.097 -149.254 -140.405 -131.551 -122.694 -113.834 -104.974 -96.1157 -87.2621 -78.4164 -69.5825 -60.7643 -51.9667 -43.1946 -34.4537 -25.75 -17.0898 -8.48024 0.0713881 -1745.22 -1736.08 -1726.96 -1717.85 -1708.77 -1699.71 -1690.67 -1681.66 -1672.67 -1663.7 -1654.76 -1645.84 -1636.94 -1628.06 -1619.21 -1610.38 -1601.56 -1592.77 -1583.98 -1575.21 -1566.45 -1557.69 -1548.94 -1540.2 -1531.46 -1522.73 -1514 -1505.27 -1496.55 -1487.83 -1479.12 -1470.4 -1461.69 -1452.98 -1444.27 -1435.56 -1426.85 -1418.15 -1409.44 -1400.74 -1392.03 -1383.33 -1374.62 -1365.92 -1357.21 -1348.51 -1339.81 -1331.11 -1322.4 -1313.7 -1305 -1296.3 -1287.6 -1278.9 -1270.2 -1261.5 -1252.8 -1244.1 -1235.4 -1226.7 -1218 -1209.3 -1200.6 -1191.9 -1183.2 -1174.5 -1165.8 -1157.1 -1148.4 -1139.7 -1131 -1122.3 -1113.6 -1104.9 -1096.2 -1087.5 -1078.8 -1070.1 -1061.4 -1052.7 -1044 -1035.3 -1026.6 -1017.9 -1009.2 -1000.5 -991.798 -983.097 -974.397 -965.697 -956.997 -948.297 -939.597 -930.897 -922.197 -913.498 -904.798 -896.098 -887.399 -878.699 -870 -861.3 -852.601 -843.901 -835.202 -826.502 -817.802 -809.103 -800.403 -791.703 -783.003 -774.303 -765.603 -756.903 -748.202 -739.502 -730.802 -722.101 -713.401 -704.7 -695.999 -687.299 -678.598 -669.898 -661.197 -652.497 -643.796 -635.096 -626.396 -617.696 -608.996 -600.296 -591.596 -582.897 -574.197 -565.498 -556.798 -548.099 -539.4 -530.701 -522.002 -513.302 -504.603 -495.904 -487.204 -478.504 -469.804 -461.104 -452.404 -443.703 -435.002 -426.3 -417.599 -408.897 -400.195 -391.492 -382.79 -374.087 -365.384 -356.681 -347.978 -339.275 -330.571 -321.868 -313.165 -304.461 -295.758 -287.053 -278.349 -269.644 -260.938 -252.231 -243.523 -234.814 -226.103 -217.39 -208.676 -199.959 -191.239 -182.517 -173.791 -165.062 -156.328 -147.589 -138.845 -130.096 -121.343 -112.588 -103.832 -95.0775 -86.3269 -77.5834 -68.8506 -60.1324 -51.4335 -42.7586 -34.1132 -25.503 -16.9344 -8.41418 0.0506057 -1724.72 -1715.72 -1706.75 -1697.78 -1688.84 -1679.91 -1671.01 -1662.12 -1653.26 -1644.41 -1635.59 -1626.79 -1618.01 -1609.25 -1600.51 -1591.79 -1583.09 -1574.4 -1565.72 -1557.06 -1548.4 -1539.76 -1531.11 -1522.47 -1513.84 -1505.21 -1496.58 -1487.96 -1479.34 -1470.72 -1462.11 -1453.49 -1444.88 -1436.27 -1427.66 -1419.06 -1410.45 -1401.84 -1393.24 -1384.63 -1376.03 -1367.42 -1358.82 -1350.22 -1341.61 -1333.01 -1324.41 -1315.8 -1307.2 -1298.6 -1290 -1281.4 -1272.8 -1264.2 -1255.6 -1247 -1238.4 -1229.8 -1221.2 -1212.6 -1204 -1195.4 -1186.8 -1178.2 -1169.6 -1161 -1152.4 -1143.8 -1135.2 -1126.61 -1118.01 -1109.41 -1100.81 -1092.2 -1083.6 -1075 -1066.4 -1057.8 -1049.2 -1040.6 -1032 -1023.4 -1014.8 -1006.2 -997.598 -988.998 -980.397 -971.797 -963.197 -954.596 -945.996 -937.396 -928.796 -920.197 -911.597 -902.997 -894.398 -885.798 -877.199 -868.599 -860 -851.4 -842.801 -834.201 -825.602 -817.002 -808.403 -799.803 -791.203 -782.603 -774.004 -765.404 -756.803 -748.203 -739.603 -731.003 -722.402 -713.802 -705.201 -696.601 -688 -679.399 -670.799 -662.198 -653.597 -644.997 -636.396 -627.796 -619.195 -610.595 -601.995 -593.395 -584.795 -576.196 -567.596 -558.997 -550.397 -541.798 -533.199 -524.6 -516.001 -507.401 -498.802 -490.203 -481.604 -473.004 -464.405 -455.805 -447.205 -438.604 -430.003 -421.402 -412.801 -404.199 -395.597 -386.995 -378.393 -369.79 -361.187 -352.584 -343.981 -335.378 -326.774 -318.171 -309.567 -300.963 -292.36 -283.755 -275.151 -266.546 -257.94 -249.334 -240.727 -232.118 -223.509 -214.898 -206.285 -197.67 -189.054 -180.434 -171.812 -163.187 -154.557 -145.923 -137.284 -128.64 -119.992 -111.341 -102.689 -94.0381 -85.3904 -76.749 -68.1173 -59.4992 -50.8989 -42.3213 -33.7714 -25.255 -16.7782 -8.34742 0.0302824 -1704.23 -1695.38 -1686.55 -1677.72 -1668.91 -1660.12 -1651.35 -1642.59 -1633.85 -1625.13 -1616.43 -1607.75 -1599.09 -1590.44 -1581.82 -1573.21 -1564.61 -1556.04 -1547.47 -1538.91 -1530.36 -1521.82 -1513.28 -1504.75 -1496.22 -1487.69 -1479.17 -1470.65 -1462.13 -1453.61 -1445.1 -1436.59 -1428.08 -1419.57 -1411.06 -1402.55 -1394.05 -1385.54 -1377.03 -1368.53 -1360.02 -1351.52 -1343.02 -1334.51 -1326.01 -1317.51 -1309 -1300.5 -1292 -1283.5 -1275 -1266.5 -1258 -1249.5 -1241 -1232.5 -1224 -1215.5 -1207 -1198.5 -1190 -1181.5 -1173 -1164.5 -1156 -1147.5 -1139 -1130.51 -1122.01 -1113.51 -1105.01 -1096.51 -1088.01 -1079.51 -1071 -1062.5 -1054 -1045.5 -1037 -1028.5 -1020 -1011.5 -1003 -994.498 -985.998 -977.497 -968.997 -960.496 -951.996 -943.496 -934.996 -926.496 -917.996 -909.496 -900.996 -892.497 -883.997 -875.498 -866.998 -858.499 -849.999 -841.5 -833.001 -824.501 -816.002 -807.502 -799.003 -790.503 -782.004 -773.504 -765.004 -756.504 -748.004 -739.504 -731.004 -722.503 -714.003 -705.503 -697.002 -688.501 -680.001 -671.5 -662.999 -654.498 -645.997 -637.497 -628.996 -620.495 -611.995 -603.495 -594.994 -586.494 -577.994 -569.495 -560.995 -552.495 -543.996 -535.497 -526.998 -518.499 -510 -501.501 -493.002 -484.503 -476.004 -467.505 -459.005 -450.506 -442.006 -433.506 -425.005 -416.504 -408.003 -399.502 -391 -382.498 -373.996 -365.493 -356.99 -348.487 -339.984 -331.48 -322.977 -314.473 -305.969 -297.465 -288.961 -280.457 -271.953 -263.448 -254.943 -246.437 -237.93 -229.423 -220.915 -212.405 -203.895 -195.382 -186.868 -178.351 -169.833 -161.311 -152.786 -144.256 -135.722 -127.183 -118.639 -110.093 -101.545 -92.9975 -84.4526 -75.9133 -67.3827 -58.8646 -50.3631 -41.8827 -33.4285 -25.006 -16.621 -8.27996 0.0104182 -1683.75 -1675.05 -1666.35 -1657.67 -1649 -1640.34 -1631.69 -1623.06 -1614.45 -1605.85 -1597.27 -1588.71 -1580.16 -1571.64 -1563.12 -1554.63 -1546.14 -1537.67 -1529.21 -1520.76 -1512.32 -1503.88 -1495.45 -1487.02 -1478.59 -1470.17 -1461.75 -1453.33 -1444.92 -1436.5 -1428.09 -1419.68 -1411.27 -1402.86 -1394.45 -1386.05 -1377.64 -1369.24 -1360.83 -1352.43 -1344.02 -1335.62 -1327.21 -1318.81 -1310.41 -1302 -1293.6 -1285.2 -1276.8 -1268.4 -1260 -1251.59 -1243.19 -1234.79 -1226.39 -1218 -1209.6 -1201.2 -1192.8 -1184.4 -1176 -1167.6 -1159.2 -1150.8 -1142.4 -1134.01 -1125.61 -1117.21 -1108.81 -1100.41 -1092.01 -1083.61 -1075.21 -1066.81 -1058.4 -1050 -1041.6 -1033.2 -1024.8 -1016.4 -1008 -999.599 -991.199 -982.798 -974.397 -965.997 -957.596 -949.196 -940.796 -932.396 -923.995 -915.595 -907.196 -898.796 -890.396 -881.997 -873.597 -865.197 -856.798 -848.399 -839.999 -831.6 -823.201 -814.801 -806.402 -798.003 -789.603 -781.204 -772.804 -764.404 -756.005 -747.605 -739.205 -730.805 -722.404 -714.004 -705.604 -697.203 -688.803 -680.402 -672.001 -663.6 -655.199 -646.798 -638.397 -629.997 -621.596 -613.195 -604.794 -596.394 -587.994 -579.593 -571.193 -562.794 -554.394 -545.994 -537.595 -529.196 -520.796 -512.397 -503.999 -495.6 -487.201 -478.802 -470.404 -462.005 -453.606 -445.206 -436.807 -428.407 -420.007 -411.606 -403.205 -394.804 -386.403 -378.001 -369.599 -361.196 -352.793 -344.39 -335.987 -327.583 -319.179 -310.776 -302.372 -293.967 -285.563 -277.159 -268.755 -260.35 -251.945 -243.54 -235.134 -226.728 -218.321 -209.913 -201.504 -193.093 -184.682 -176.268 -167.853 -159.435 -151.014 -142.589 -134.159 -125.724 -117.286 -108.844 -100.4 -91.9555 -83.5135 -75.0762 -66.6468 -58.2287 -49.8259 -41.4429 -33.0845 -24.7559 -16.463 -8.21181 -0.00898691 -1663.28 -1654.72 -1646.17 -1637.62 -1629.09 -1620.56 -1612.04 -1603.54 -1595.05 -1586.58 -1578.12 -1569.67 -1561.24 -1552.83 -1544.43 -1536.04 -1527.67 -1519.31 -1510.96 -1502.62 -1494.28 -1485.95 -1477.62 -1469.29 -1460.97 -1452.65 -1444.33 -1436.02 -1427.71 -1419.39 -1411.08 -1402.77 -1394.47 -1386.16 -1377.85 -1369.54 -1361.24 -1352.93 -1344.63 -1336.32 -1328.02 -1319.71 -1311.41 -1303.