<?xml version="1.0"?> 
<VTKFile type="StructuredGrid" version="0.1"> 
<StructuredGrid WholeExtent="0 200 0 200 0 0"> 
<Piece Extent="0 200 0 200 0 0"> 
<PointData Vectors="Displ">
<DataArray type="Float32" Name="Displ" format="ascii" NumberOfComponents="3"> 
6.86206e-07 -6.0421e-05 0 -1.52095e-05 -6.28353e-05 0 -3.10269e-05 -6.58096e-05 0 -4.67662e-05 -6.93437e-05 0 -6.24271e-05 -7.34376e-05 0 -7.80099e-05 -7.80915e-05 0 -9.35143e-05 -8.33052e-05 0 -0.000108941 -8.90789e-05 0 -0.000124289 -9.54123e-05 0 -0.000139558 -0.000102306 0 -0.00015475 -0.000109759 0 -0.000169863 -0.000117772 0 -0.000184898 -0.000126345 0 -0.000199855 -0.000135478 0 -0.000214733 -0.000145171 0 -0.000229534 -0.000155423 0 -0.000244256 -0.000166236 0 -0.0002589 -0.000177608 0 -0.000273465 -0.00018954 0 -0.000287953 -0.000202033 0 -0.000302362 -0.000215085 0 -0.000316692 -0.000228697 0 -0.000330945 -0.000242868 0 -0.000345119 -0.0002576 0 -0.000359216 -0.000272891 0 -0.000373233 -0.000288743 0 -0.000387173 -0.000305154 0 -0.000401034 -0.000322125 0 -0.000414818 -0.000339656 0 -0.000428522 -0.000357747 0 -0.000442149 -0.000376398 0 -0.000455698 -0.000395609 0 -0.000469168 -0.000415379 0 -0.00048256 -0.00043571 0 -0.000495873 -0.0004566 0 -0.000509109 -0.00047805 0 -0.000522266 -0.00050006 0 -0.000535345 -0.00052263 0 -0.000548346 -0.00054576 0 -0.000561268 -0.00056945 0 -0.000574112 -0.000593699 0 -0.000586878 -0.000618508 0 -0.000599566 -0.000643878 0 -0.000612176 -0.000669807 0 -0.000624707 -0.000696296 0 -0.00063716 -0.000723345 0 -0.000649535 -0.000750954 0 -0.000661831 -0.000779122 0 -0.000674049 -0.000807851 0 -0.000686189 -0.000837139 0 -0.000698251 -0.000866988 0 -0.000710234 -0.000897316 0 -0.000722136 -0.000928045 0 -0.000733957 -0.000959175 0 -0.000745698 -0.000990705 0 -0.000757359 -0.00102264 0 -0.000768939 -0.00105497 0 -0.000780439 -0.0010877 0 -0.000791858 -0.00112083 0 -0.000803197 -0.00115437 0 -0.000814455 -0.0011883 0 -0.000825633 -0.00122263 0 -0.000836731 -0.00125737 0 -0.000847748 -0.0012925 0 -0.000858684 -0.00132804 0 -0.000869541 -0.00136398 0 -0.000880316 -0.00140031 0 -0.000891011 -0.00143705 0 -0.000901626 -0.00147419 0 -0.00091216 -0.00151173 0 -0.000922614 -0.00154967 0 -0.000932988 -0.00158801 0 -0.000943281 -0.00162675 0 -0.000953493 -0.00166589 0 -0.000963625 -0.00170543 0 -0.000973677 -0.00174537 0 -0.000983648 -0.00178572 0 -0.000993539 -0.00182646 0 -0.00100335 -0.0018676 0 -0.00101308 -0.00190915 0 -0.00102273 -0.00195109 0 -0.0010323 -0.00199344 0 -0.00104179 -0.00203619 0 -0.00105119 -0.00207933 0 -0.00106052 -0.00212288 0 -0.00106977 -0.00216683 0 -0.00107893 -0.00221118 0 -0.00108802 -0.00225593 0 -0.00109703 -0.00230108 0 -0.00110595 -0.00234663 0 -0.0011148 -0.00239258 0 -0.00112356 -0.00243893 0 -0.00113224 -0.00248568 0 -0.00114085 -0.00253283 0 -0.00114937 -0.00258039 0 -0.00115781 -0.00262834 0 -0.00116618 -0.00267669 0 -0.00117446 -0.00272545 0 -0.00118266 -0.0027746 0 -0.00119078 -0.00282416 0 -0.00119882 -0.00287412 0 -0.00120678 -0.00292439 0 -0.00121466 -0.00297491 0 -0.00122246 -0.00302566 0 -0.00123018 -0.00307666 0 -0.00123781 -0.00312789 0 -0.00124537 -0.00317936 0 -0.00125285 -0.00323108 0 -0.00126024 -0.00328303 0 -0.00126756 -0.00333522 0 -0.00127479 -0.00338765 0 -0.00128195 -0.00344031 0 -0.00128902 -0.00349322 0 -0.00129602 -0.00354637 0 -0.00130293 -0.00359976 0 -0.00130976 -0.00365338 0 -0.00131651 -0.00370725 0 -0.00132319 -0.00376135 0 -0.00132978 -0.00381569 0 -0.00133629 -0.00387027 0 -0.00134272 -0.00392509 0 -0.00134907 -0.00398015 0 -0.00135534 -0.00403545 0 -0.00136152 -0.00409099 0 -0.00136763 -0.00414677 0 -0.00137366 -0.00420279 0 -0.00137961 -0.00425904 0 -0.00138547 -0.00431554 0 -0.00139126 -0.00437227 0 -0.00139696 -0.00442925 0 -0.00140259 -0.00448646 0 -0.00140813 -0.00454391 0 -0.0014136 -0.00460161 0 -0.00141898 -0.00465954 0 -0.00142428 -0.00471771 0 -0.0014295 -0.00477611 0 -0.00143465 -0.00483476 0 -0.00143971 -0.00489365 0 -0.00144469 -0.00495278 0 -0.00144959 -0.00501214 0 -0.00145441 -0.00507175 0 -0.00145915 -0.00513159 0 -0.0014638 -0.00519168 0 -0.00146838 -0.005252 0 -0.00147288 -0.00531256 0 -0.0014773 -0.00537336 0 -0.00148163 -0.0054344 0 -0.00148589 -0.00549568 0 -0.00149006 -0.0055572 0 -0.00149416 -0.00561896 0 -0.00149817 -0.00568095 0 -0.00150211 -0.00574311 0 -0.00150597 -0.00580535 0 -0.00150975 -0.00586767 0 -0.00151345 -0.00593007 0 -0.00151708 -0.00599255 0 -0.00152063 -0.00605512 0 -0.0015241 -0.00611776 0 -0.0015275 -0.00618049 0 -0.00153082 -0.0062433 0 -0.00153406 -0.00630619 0 -0.00153722 -0.00636916 0 -0.00154031 -0.00643221 0 -0.00154332 -0.00649535 0 -0.00154625 -0.00655856 0 -0.00154911 -0.00662186 0 -0.00155189 -0.00668524 0 -0.00155459 -0.0067487 0 -0.00155721 -0.00681224 0 -0.00155976 -0.00687586 0 -0.00156223 -0.00693957 0 -0.00156462 -0.00700335 0 -0.00156694 -0.00706722 0 -0.00156918 -0.00713117 0 -0.00157134 -0.0071952 0 -0.00157342 -0.00725931 0 -0.00157543 -0.0073235 0 -0.00157736 -0.00738778 0 -0.00157921 -0.00745213 0 -0.00158099 -0.00751657 0 -0.00158269 -0.00758109 0 -0.00158431 -0.00764569 0 -0.00158585 -0.00771037 0 -0.00158732 -0.00777513 0 -0.00158871 -0.00783998 0 -0.00159002 -0.0079049 0 -0.00159126 -0.00796991 0 -0.00159242 -0.008035 0 -0.0015935 -0.00810017 0 -0.00159451 -0.00816542 0 -0.00159543 -0.00823076 0 -0.00159628 -0.00829617 0 -0.00159706 -0.00836167 0 -0.00159775 -0.00842724 0 -0.00159837 -0.0084929 0 -0.00159891 -0.00855864 0 -0.00159938 -0.00862446 0 -0.00159977 -0.00869037 0 -0.00160008 -0.00875635 0 -0.00160031 -0.00882242 0 -0.00160047 -0.00888856 0 9.41999e-07 -5.92319e-05 0 -1.47942e-05 -6.16521e-05 0 -3.0453e-05 -6.46322e-05 0 -4.60344e-05 -6.81722e-05 0 -6.15382e-05 -7.2272e-05 0 -7.69647e-05 -7.69317e-05 0 -9.23136e-05 -8.21513e-05 0 -0.000107585 -8.79308e-05 0 -0.000122779 -9.42702e-05 0 -0.000137896 -0.000101169 0 -0.000152935 -0.000108629 0 -0.000167897 -0.000116648 0 -0.000182781 -0.000125226 0 -0.000197588 -0.000134365 0 -0.000212317 -0.000144064 0 -0.000226969 -0.000154322 0 -0.000241543 -0.000165141 0 -0.00025604 -0.000176519 0 -0.00027046 -0.000188457 0 -0.000284802 -0.000200955 0 -0.000299066 -0.000214013 0 -0.000313254 -0.000227631 0 -0.000327363 -0.000241808 0 -0.000341395 -0.000256546 0 -0.00035535 -0.000271843 0 -0.000369228 -0.000287701 0 -0.000383027 -0.000304118 0 -0.00039675 -0.000321095 0 -0.000410395 -0.000338632 0 -0.000423962 -0.000356728 0 -0.000437452 -0.000375385 0 -0.000450865 -0.000394602 0 -0.0004642 -0.000414378 0 -0.000477458 -0.000434714 0 -0.000490638 -0.000455611 0 -0.000503741 -0.000477067 0 -0.000516766 -0.000499083 0 -0.000529714 -0.000521658 0 -0.000542585 -0.000544794 0 -0.000555377 -0.00056849 0 -0.000568093 -0.000592745 0 -0.000580731 -0.00061756 0 -0.000593292 -0.000642936 0 -0.000605775 -0.000668871 0 -0.00061818 -0.000695366 0 -0.000630509 -0.00072242 0 -0.000642759 -0.000750035 0 -0.000654933 -0.00077821 0 -0.000667029 -0.000806944 0 -0.000679047 -0.000836239 0 -0.000690988 -0.000866093 0 -0.00070285 -0.000896427 0 -0.000714633 -0.000927162 0 -0.000726336 -0.000958298 0 -0.00073796 -0.000989834 0 -0.000749504 -0.00102177 0 -0.000760968 -0.00105411 0 -0.000772352 -0.00108685 0 -0.000783657 -0.00111998 0 -0.000794883 -0.00115352 0 -0.000806028 -0.00118746 0 -0.000817094 -0.0012218 0 -0.000828081 -0.00125654 0 -0.000838987 -0.00129169 0 -0.000849814 -0.00132723 0 -0.000860562 -0.00136317 0 -0.000871229 -0.00139951 0 -0.000881817 -0.00143626 0 -0.000892326 -0.0014734 0 -0.000902755 -0.00151095 0 -0.000913104 -0.00154889 0 -0.000923373 -0.00158724 0 -0.000933563 -0.00162598 0 -0.000943674 -0.00166513 0 -0.000953704 -0.00170468 0 -0.000963655 -0.00174463 0 -0.000973526 -0.00178498 0 -0.000983318 -0.00182572 0 -0.00099303 -0.00186687 0 -0.00100266 -0.00190843 0 -0.00101222 -0.00195038 0 -0.00102169 -0.00199273 0 -0.00103108 -0.00203548 0 -0.0010404 -0.00207863 0 -0.00104963 -0.00212219 0 -0.00105878 -0.00216614 0 -0.00106786 -0.0022105 0 -0.00107685 -0.00225525 0 -0.00108577 -0.00230041 0 -0.00109461 -0.00234596 0 -0.00110336 -0.00239192 0 -0.00111204 -0.00243828 0 -0.00112064 -0.00248504 0 -0.00112915 -0.00253219 0 -0.00113759 -0.00257975 0 -0.00114595 -0.00262771 0 -0.00115423 -0.00267607 0 -0.00116243 -0.00272483 0 -0.00117055 -0.002774 0 -0.00117858 -0.00282356 0 -0.00118654 -0.00287352 0 -0.00119442 -0.0029238 0 -0.00120222 -0.00297432 0 -0.00120995 -0.00302509 0 -0.00121759 -0.00307609 0 -0.00122515 -0.00312732 0 -0.00123263 -0.0031788 0 -0.00124003 -0.00323052 0 -0.00124735 -0.00328248 0 -0.0012546 -0.00333467 0 -0.00126176 -0.00338711 0 -0.00126884 -0.00343978 0 -0.00127585 -0.0034927 0 -0.00128277 -0.00354585 0 -0.00128961 -0.00359924 0 -0.00129638 -0.00365287 0 -0.00130306 -0.00370674 0 -0.00130967 -0.00376085 0 -0.00131619 -0.0038152 0 -0.00132264 -0.00386979 0 -0.001329 -0.00392462 0 -0.00133529 -0.00397968 0 -0.0013415 -0.00403499 0 -0.00134762 -0.00409053 0 -0.00135367 -0.00414632 0 -0.00135964 -0.00420234 0 -0.00136552 -0.0042586 0 -0.00137133 -0.0043151 0 -0.00137706 -0.00437185 0 -0.00138271 -0.00442883 0 -0.00138828 -0.00448604 0 -0.00139377 -0.0045435 0 -0.00139918 -0.0046012 0 -0.00140451 -0.00465914 0 -0.00140976 -0.00471731 0 -0.00141493 -0.00477573 0 -0.00142002 -0.00483438 0 -0.00142503 -0.00489327 0 -0.00142996 -0.00495241 0 -0.00143481 -0.00501178 0 -0.00143958 -0.00507139 0 -0.00144427 -0.00513124 0 -0.00144889 -0.00519133 0 -0.00145342 -0.00525166 0 -0.00145787 -0.00531223 0 -0.00146224 -0.00537303 0 -0.00146654 -0.00543408 0 -0.00147075 -0.00549536 0 -0.00147488 -0.00555689 0 -0.00147894 -0.00561865 0 -0.00148291 -0.00568065 0 -0.00148681 -0.00574282 0 -0.00149063 -0.00580506 0 -0.00149437 -0.00586739 0 -0.00149804 -0.0059298 0 -0.00150163 -0.00599228 0 -0.00150515 -0.00605486 0 -0.00150859 -0.00611751 0 -0.00151195 -0.00618024 0 -0.00151523 -0.00624305 0 -0.00151844 -0.00630595 0 -0.00152157 -0.00636893 0 -0.00152463 -0.00643199 0 -0.00152761 -0.00649513 0 -0.00153051 -0.00655835 0 -0.00153334 -0.00662165 0 -0.00153609 -0.00668504 0 -0.00153877 -0.0067485 0 -0.00154136 -0.00681205 0 -0.00154388 -0.00687568 0 -0.00154633 -0.00693939 0 -0.0015487 -0.00700318 0 -0.00155099 -0.00706705 0 -0.00155321 -0.00713101 0 -0.00155535 -0.00719504 0 -0.00155741 -0.00725916 0 -0.00155939 -0.00732336 0 -0.00156131 -0.00738764 0 -0.00156314 -0.007452 0 -0.0015649 -0.00751645 0 -0.00156658 -0.00758097 0 -0.00156818 -0.00764558 0 -0.00156971 -0.00771026 0 -0.00157116 -0.00777503 0 -0.00157254 -0.00783988 0 -0.00157384 -0.00790481 0 -0.00157506 -0.00796983 0 -0.00157621 -0.00803492 0 -0.00157728 -0.0081001 0 -0.00157827 -0.00816535 0 -0.00157919 -0.00823069 0 -0.00158003 -0.00829611 0 -0.00158079 -0.00836162 0 -0.00158148 -0.0084272 0 -0.00158209 -0.00849286 0 -0.00158262 -0.00855861 0 -0.00158308 -0.00862444 0 -0.00158347 -0.00869034 0 -0.00158377 -0.00875633 0 -0.001584 -0.00882241 0 -0.00158415 -0.00888856 0 1.19248e-06 -5.80546e-05 0 -1.43843e-05 -6.04806e-05 0 -2.98844e-05 -6.34665e-05 0 -4.53079e-05 -6.70123e-05 0 -6.06547e-05 -7.1118e-05 0 -7.59248e-05 -7.57835e-05 0 -9.11183e-05 -8.10089e-05 0 -0.000106235 -8.67942e-05 0 -0.000121275 -9.31394e-05 0 -0.000136239 -0.000100044 0 -0.000151125 -0.000107509 0 -0.000165936 -0.000115534 0 -0.000180669 -0.000124119 0 -0.000195326 -0.000133263 0 -0.000209906 -0.000142968 0 -0.000224409 -0.000153232 0 -0.000238836 -0.000164056 0 -0.000253186 -0.000175441 0 -0.00026746 -0.000187384 0 -0.000281657 -0.000199888 0 -0.000295777 -0.000212952 0 -0.00030982 -0.000226576 0 -0.000323787 -0.000240759 0 -0.000337677 -0.000255502 0 -0.000351491 -0.000270806 0 -0.000365227 -0.000286669 0 -0.000378887 -0.000303092 0 -0.000392471 -0.000320075 0 -0.000405978 -0.000337617 0 -0.000419408 -0.00035572 0 -0.000432761 -0.000374382 0 -0.000446038 -0.000393605 0 -0.000459238 -0.000413387 0 -0.000472362 -0.000433729 0 -0.000485409 -0.000454631 0 -0.000498379 -0.000476093 0 -0.000511272 -0.000498115 0 -0.000524089 -0.000520697 0 -0.000536829 -0.000543838 0 -0.000549493 -0.000567539 0 -0.000562079 -0.000591801 0 -0.000574589 -0.000616622 0 -0.000587023 -0.000642003 0 -0.00059938 -0.000667944 0 -0.00061166 -0.000694445 0 -0.000623863 -0.000721505 0 -0.00063599 -0.000749126 0 -0.00064804 -0.000777306 0 -0.000660014 -0.000806046 0 -0.00067191 -0.000835347 0 -0.000683731 -0.000865207 0 -0.000695473 -0.000895547 0 -0.000707137 -0.000926288 0 -0.000718721 -0.000957429 0 -0.000730227 -0.000988971 0 -0.000741654 -0.00102091 0 -0.000753002 -0.00105326 0 -0.000764272 -0.001086 0 -0.000775462 -0.00111915 0 -0.000786574 -0.00115269 0 -0.000797607 -0.00118664 0 -0.000808561 -0.00122098 0 -0.000819436 -0.00125573 0 -0.000830232 -0.00129088 0 -0.00084095 -0.00132642 0 -0.000851588 -0.00136237 0 -0.000862148 -0.00139872 0 -0.000872629 -0.00143547 0 -0.000883031 -0.00147262 0 -0.000893355 -0.00151017 0 -0.000903599 -0.00154812 0 -0.000913765 -0.00158647 0 -0.000923852 -0.00162523 0 -0.00093386 -0.00166438 0 -0.000943789 -0.00170393 0 -0.000953639 -0.00174389 0 -0.000963411 -0.00178424 0 -0.000973103 -0.001825 0 -0.000982717 -0.00186615 0 -0.000992252 -0.00190771 0 -0.00100171 -0.00194967 0 -0.00101109 -0.00199202 0 -0.00102038 -0.00203478 0 -0.0010296 -0.00207794 0 -0.00103874 -0.0021215 0 -0.00104781 -0.00216546 0 -0.00105679 -0.00220982 0 -0.00106569 -0.00225458 0 -0.00107452 -0.00229974 0 -0.00108327 -0.00234531 0 -0.00109193 -0.00239127 0 -0.00110052 -0.00243763 0 -0.00110903 -0.0024844 0 -0.00111746 -0.00253156 0 -0.00112582 -0.00257913 0 -0.00113409 -0.00262709 0 -0.00114228 -0.00267546 0 -0.0011504 -0.00272423 0 -0.00115844 -0.00277339 0 -0.0011664 -0.00282296 0 -0.00117427 -0.00287293 0 -0.00118208 -0.00292322 0 -0.0011898 -0.00297375 0 -0.00119744 -0.00302451 0 -0.001205 -0.00307552 0 -0.00121249 -0.00312676 0 -0.00121989 -0.00317825 0 -0.00122722 -0.00322997 0 -0.00123447 -0.00328193 0 -0.00124164 -0.00333414 0 -0.00124873 -0.00338658 0 -0.00125574 -0.00343926 0 -0.00126267 -0.00349218 0 -0.00126953 -0.00354534 0 -0.0012763 -0.00359873 0 -0.001283 -0.00365237 0 -0.00128962 -0.00370625 0 -0.00129615 -0.00376036 0 -0.00130261 -0.00381472 0 -0.00130899 -0.00386931 0 -0.0013153 -0.00392414 0 -0.00132152 -0.00397922 0 -0.00132766 -0.00403453 0 -0.00133373 -0.00409008 0 -0.00133971 -0.00414587 0 -0.00134562 -0.0042019 0 -0.00135145 -0.00425817 0 -0.0013572 -0.00431467 0 -0.00136287 -0.00437142 0 -0.00136846 -0.00442841 0 -0.00137397 -0.00448563 0 -0.00137941 -0.0045431 0 -0.00138476 -0.0046008 0 -0.00139004 -0.00465874 0 -0.00139523 -0.00471692 0 -0.00140035 -0.00477534 0 -0.00140539 -0.004834 0 -0.00141035 -0.0048929 0 -0.00141523 -0.00495204 0 -0.00142004 -0.00501142 0 -0.00142476 -0.00507104 0 -0.00142941 -0.00513089 0 -0.00143397 -0.00519099 0 -0.00143846 -0.00525132 0 -0.00144287 -0.00531189 0 -0.0014472 -0.00537271 0 -0.00145145 -0.00543376 0 -0.00145562 -0.00549505 0 -0.00145971 -0.00555658 0 -0.00146373 -0.00561835 0 -0.00146766 -0.00568036 0 -0.00147152 -0.00574253 0 -0.0014753 -0.00580478 0 -0.00147901 -0.00586711 0 -0.00148264 -0.00592952 0 -0.00148619 -0.00599202 0 -0.00148967 -0.0060546 0 -0.00149307 -0.00611725 0 -0.0014964 -0.00617999 0 -0.00149965 -0.00624281 0 -0.00150283 -0.00630571 0 -0.00150593 -0.0063687 0 -0.00150896 -0.00643176 0 -0.00151191 -0.00649491 0 -0.00151478 -0.00655814 0 -0.00151758 -0.00662144 0 -0.0015203 -0.00668483 0 -0.00152295 -0.00674831 0 -0.00152552 -0.00681186 0 -0.00152802 -0.00687549 0 -0.00153044 -0.00693921 0 -0.00153278 -0.00700301 0 -0.00153505 -0.00706689 0 -0.00153724 -0.00713085 0 -0.00153936 -0.00719489 0 -0.0015414 -0.00725901 0 -0.00154337 -0.00732322 0 -0.00154526 -0.0073875 0 -0.00154707 -0.00745187 0 -0.00154881 -0.00751632 0 -0.00155047 -0.00758085 0 -0.00155206 -0.00764546 0 -0.00155357 -0.00771016 0 -0.00155501 -0.00777493 0 -0.00155637 -0.00783979 0 -0.00155765 -0.00790472 0 -0.00155886 -0.00796974 0 -0.00156 -0.00803484 0 -0.00156106 -0.00810002 0 -0.00156204 -0.00816529 0 -0.00156294 -0.00823063 0 -0.00156377 -0.00829606 0 -0.00156453 -0.00836157 0 -0.00156521 -0.00842715 0 -0.00156581 -0.00849282 0 -0.00156634 -0.00855858 0 -0.00156679 -0.00862441 0 -0.00156717 -0.00869032 0 -0.00156747 -0.00875632 0 -0.0015677 -0.0088224 0 -0.00156785 -0.00888856 0 1.43765e-06 -5.68891e-05 0 -1.39797e-05 -5.93209e-05 0 -2.93212e-05 -6.23126e-05 0 -4.45868e-05 -6.58642e-05 0 -5.97765e-05 -6.99756e-05 0 -7.48903e-05 -7.46469e-05 0 -8.99283e-05 -7.98781e-05 0 -0.00010489 -8.56691e-05 0 -0.000119777 -9.20201e-05 0 -0.000134587 -9.89309e-05 0 -0.000149321 -0.000106402 0 -0.00016398 -0.000114432 0 -0.000178563 -0.000123023 0 -0.000193069 -0.000132173 0 -0.0002075 -0.000141883 0 -0.000221855 -0.000152153 0 -0.000236135 -0.000162983 0 -0.000250338 -0.000174373 0 -0.000264465 -0.000186323 0 -0.000278517 -0.000198832 0 -0.000292493 -0.000211902 0 -0.000306392 -0.000225531 0 -0.000320216 -0.00023972 0 -0.000333964 -0.00025447 0 -0.000347636 -0.000269779 0 -0.000361233 -0.000285647 0 -0.000374753 -0.000302076 0 -0.000388198 -0.000319065 0 -0.000401566 -0.000336613 0 -0.000414859 -0.000354722 0 -0.000428076 -0.00037339 0 -0.000441217 -0.000392618 0 -0.000454282 -0.000412406 0 -0.000467271 -0.000432754 0 -0.000480185 -0.000453662 0 -0.000493022 -0.000475129 0 -0.000505784 -0.000497157 0 -0.000518469 -0.000519744 0 -0.000531079 -0.000542892 0 -0.000543613 -0.000566599 0 -0.000556071 -0.000590866 0 -0.000568453 -0.000615693 0 -0.00058076 -0.00064108 0 -0.00059299 -0.000667026 0 -0.000605145 -0.000693533 0 -0.000617224 -0.000720599 0 -0.000629226 -0.000748226 0 -0.000641153 -0.000776412 0 -0.000653004 -0.000805158 0 -0.00066478 -0.000834464 0 -0.000676479 -0.00086433 0 -0.000688101 -0.000894676 0 -0.000699646 -0.000925422 0 -0.000711112 -0.00095657 0 -0.0007225 -0.000988117 0 -0.00073381 -0.00102007 0 -0.000745043 -0.00105241 0 -0.000756197 -0.00108516 0 -0.000767273 -0.00111831 0 -0.000778271 -0.00115187 0 -0.000789191 -0.00118582 0 -0.000800033 -0.00122017 0 -0.000810797 -0.00125492 0 -0.000821483 -0.00129007 0 -0.000832091 -0.00132563 0 -0.000842621 -0.00136158 0 -0.000853073 -0.00139794 0 -0.000863447 -0.00143469 0 -0.000873743 -0.00147185 0 -0.000883961 -0.0015094 0 -0.0008941 -0.00154736 0 -0.000904162 -0.00158572 0 -0.000914146 -0.00162448 0 -0.000924052 -0.00166364 0 -0.000933879 -0.0017032 0 -0.000943629 -0.00174316 0 -0.000953301 -0.00178352 0 -0.000962894 -0.00182428 0 -0.00097241 -0.00186544 0 -0.000981847 -0.001907 0 -0.000991207 -0.00194896 0 -0.00100049 -0.00199133 0 -0.00100969 -0.00203409 0 -0.00101882 -0.00207726 0 -0.00102786 -0.00212082 0 -0.00103683 -0.00216479 0 -0.00104573 -0.00220915 0 -0.00105454 -0.00225392 0 -0.00106327 -0.00229909 0 -0.00107193 -0.00234466 0 -0.00108051 -0.00239062 0 -0.00108901 -0.00243699 0 -0.00109743 -0.00248376 0 -0.00110578 -0.00253093 0 -0.00111405 -0.00257851 0 -0.00112224 -0.00262648 0 -0.00113035 -0.00267485 0 -0.00113838 -0.00272362 0 -0.00114633 -0.0027728 0 -0.00115421 -0.00282237 0 -0.00116201 -0.00287234 0 -0.00116973 -0.00292264 0 -0.00117737 -0.00297317 0 -0.00118494 -0.00302394 0 -0.00119243 -0.00307496 0 -0.00119983 -0.00312621 0 -0.00120716 -0.0031777 0 -0.00121442 -0.00322943 0 -0.00122159 -0.0032814 0 -0.00122869 -0.0033336 0 -0.00123571 -0.00338605 0 -0.00124265 -0.00343874 0 -0.00124951 -0.00349166 0 -0.00125629 -0.00354483 0 -0.001263 -0.00359823 0 -0.00126963 -0.00365187 0 -0.00127618 -0.00370576 0 -0.00128265 -0.00375988 0 -0.00128904 -0.00381424 0 -0.00129536 -0.00386884 0 -0.00130159 -0.00392368 0 -0.00130775 -0.00397876 0 -0.00131383 -0.00403407 0 -0.00131984 -0.00408963 0 -0.00132576 -0.00414542 0 -0.00133161 -0.00420146 0 -0.00133738 -0.00425773 0 -0.00134307 -0.00431425 0 -0.00134868 -0.004371 0 -0.00135422 -0.00442799 0 -0.00135967 -0.00448522 0 -0.00136505 -0.00454269 0 -0.00137035 -0.0046004 0 -0.00137558 -0.00465835 0 -0.00138072 -0.00471654 0 -0.00138579 -0.00477496 0 -0.00139077 -0.00483363 0 -0.00139568 -0.00489253 0 -0.00140052 -0.00495168 0 -0.00140527 -0.00501106 0 -0.00140995 -0.00507069 0 -0.00141454 -0.00513055 0 -0.00141906 -0.00519065 0 -0.00142351 -0.00525099 0 -0.00142787 -0.00531157 0 -0.00143216 -0.00537239 0 -0.00143636 -0.00543344 0 -0.00144049 -0.00549474 0 -0.00144454 -0.00555628 0 -0.00144852 -0.00561805 0 -0.00145241 -0.00568007 0 -0.00145623 -0.00574224 0 -0.00145997 -0.0058045 0 -0.00146364 -0.00586684 0 -0.00146724 -0.00592926 0 -0.00147076 -0.00599176 0 -0.0014742 -0.00605434 0 -0.00147757 -0.006117 0 -0.00148086 -0.00617975 0 -0.00148408 -0.00624257 0 -0.00148723 -0.00630548 0 -0.0014903 -0.00636847 0 -0.00149329 -0.00643154 0 -0.00149621 -0.00649469 0 -0.00149905 -0.00655792 0 -0.00150182 -0.00662124 0 -0.00150452 -0.00668464 0 -0.00150714 -0.00674811 0 -0.00150968 -0.00681167 0 -0.00151215 -0.00687531 0 -0.00151455 -0.00693903 0 -0.00151687 -0.00700284 0 -0.00151911 -0.00706672 0 -0.00152128 -0.00713069 0 -0.00152338 -0.00719474 0 -0.0015254 -0.00725887 0 -0.00152734 -0.00732308 0 -0.00152921 -0.00738737 0 -0.00153101 -0.00745174 0 -0.00153273 -0.0075162 0 -0.00153437 -0.00758073 0 -0.00153595 -0.00764535 0 -0.00153744 -0.00771005 0 -0.00153886 -0.00777483 0 -0.00154021 -0.00783969 0 -0.00154148 -0.00790463 0 -0.00154267 -0.00796966 0 -0.0015438 -0.00803476 0 -0.00154484 -0.00809995 0 -0.00154581 -0.00816522 0 -0.00154671 -0.00823057 0 -0.00154753 -0.008296 0 -0.00154828 -0.00836152 0 -0.00154895 -0.00842711 0 -0.00154954 -0.00849279 0 -0.00155006 -0.00855854 0 -0.00155051 -0.00862438 0 -0.00155088 -0.0086903 0 -0.00155118 -0.00875631 0 -0.0015514 -0.00882239 0 -0.00155155 -0.00888855 0 1.67751e-06 -5.57355e-05 0 -1.35804e-05 -5.8173e-05 0 -2.87633e-05 -6.11704e-05 0 -4.3871e-05 -6.47277e-05 0 -5.89037e-05 -6.88448e-05 0 -7.38612e-05 -7.35218e-05 0 -8.87437e-05 -7.87587e-05 0 -0.000103551 -8.45555e-05 0 -0.000118283 -9.09121e-05 0 -0.000132941 -9.78286e-05 0 -0.000147523 -0.000105305 0 -0.00016203 -0.000113341 0 -0.000176462 -0.000121937 0 -0.000190818 -0.000131094 0 -0.0002051 -0.000140809 0 -0.000219307 -0.000151085 0 -0.000233438 -0.000161921 0 -0.000247495 -0.000173316 0 -0.000261476 -0.000185272 0 -0.000275383 -0.000197787 0 -0.000289214 -0.000210862 0 -0.00030297 -0.000224497 0 -0.000316651 -0.000238692 0 -0.000330257 -0.000253447 0 -0.000343788 -0.000268762 0 -0.000357243 -0.000284637 0 -0.000370624 -0.000301071 0 -0.00038393 -0.000318065 0 -0.00039716 -0.00033562 0 -0.000410316 -0.000353734 0 -0.000423396 -0.000372408 0 -0.000436401 -0.000391642 0 -0.000449331 -0.000411435 0 -0.000462186 -0.000431789 0 -0.000474966 -0.000452702 0 -0.000487671 -0.000474176 0 -0.000500301 -0.000496209 0 -0.000512855 -0.000518802 0 -0.000525335 -0.000541955 0 -0.000537739 -0.000565668 0 -0.000550069 -0.000589941 0 -0.000562323 -0.000614773 0 -0.000574502 -0.000640166 0 -0.000586606 -0.000666118 0 -0.000598636 -0.000692631 0 -0.000610589 -0.000719703 0 -0.000622468 -0.000747335 0 -0.000634272 -0.000775527 0 -0.000646001 -0.000804278 0 -0.000657654 -0.00083359 0 -0.000669233 -0.000863462 0 -0.000680735 -0.000893813 0 -0.00069216 -0.000924566 0 -0.000703508 -0.000955719 0 -0.000714779 -0.000987272 0 -0.000725972 -0.00101923 0 -0.000737088 -0.00105158 0 -0.000748127 -0.00108434 0 -0.000759089 -0.00111749 0 -0.000769974 -0.00115105 0 -0.000780781 -0.00118501 0 -0.000791511 -0.00121936 0 -0.000802164 -0.00125412 0 -0.00081274 -0.00128928 0 -0.000823238 -0.00132484 0 -0.000833659 -0.0013608 0 -0.000844003 -0.00139716 0 -0.00085427 -0.00143392 0 -0.00086446 -0.00147108 0 -0.000874572 -0.00150865 0 -0.000884607 -0.00154661 0 -0.000894565 -0.00158497 0 -0.000904446 -0.00162374 0 -0.000914249 -0.0016629 0 -0.000923975 -0.00170247 0 -0.000933624 -0.00174243 0 -0.000943196 -0.0017828 0 -0.000952691 -0.00182356 0 -0.000962108 -0.00186473 0 -0.000971448 -0.0019063 0 -0.000980711 -0.00194827 0 -0.000989897 -0.00199064 0 -0.000999005 -0.00203341 0 -0.00100804 -0.00207658 0 -0.00101699 -0.00212015 0 -0.00102587 -0.00216412 0 -0.00103467 -0.00220849 0 -0.00104339 -0.00225327 0 -0.00105203 -0.00229844 0 -0.0010606 -0.00234401 0 -0.00106909 -0.00238999 0 -0.00107751 -0.00243636 0 -0.00108584 -0.00248314 0 -0.0010941 -0.00253031 0 -0.00110228 -0.00257789 0 -0.00111039 -0.00262587 0 -0.00111842 -0.00267425 0 -0.00112637 -0.00272303 0 -0.00113424 -0.0027722 0 -0.00114203 -0.00282178 0 -0.00114975 -0.00287176 0 -0.00115739 -0.00292206 0 -0.00116496 -0.0029726 0 -0.00117244 -0.00302338 0 -0.00117985 -0.0030744 0 -0.00118719 -0.00312566 0 -0.00119444 -0.00317715 0 -0.00120162 -0.00322889 0 -0.00120872 -0.00328086 0 -0.00121574 -0.00333308 0 -0.00122269 -0.00338553 0 -0.00122956 -0.00343822 0 -0.00123635 -0.00349115 0 -0.00124306 -0.00354432 0 -0.0012497 -0.00359773 0 -0.00125626 -0.00365138 0 -0.00126274 -0.00370527 0 -0.00126915 -0.0037594 0 -0.00127547 -0.00381376 0 -0.00128172 -0.00386837 0 -0.0012879 -0.00392321 0 -0.00129399 -0.0039783 0 -0.00130001 -0.00403362 0 -0.00130595 -0.00408918 0 -0.00131182 -0.00414499 0 -0.00131761 -0.00420103 0 -0.00132331 -0.00425731 0 -0.00132895 -0.00431382 0 -0.0013345 -0.00437058 0 -0.00133998 -0.00442758 0 -0.00134538 -0.00448482 0 -0.0013507 -0.00454229 0 -0.00135595 -0.00460001 0 -0.00136112 -0.00465796 0 -0.00136621 -0.00471616 0 -0.00137123 -0.00477459 0 -0.00137616 -0.00483326 0 -0.00138102 -0.00489217 0 -0.00138581 -0.00495132 0 -0.00139051 -0.00501071 0 -0.00139514 -0.00507034 0 -0.00139969 -0.00513021 0 -0.00140416 -0.00519031 0 -0.00140856 -0.00525066 0 -0.00141288 -0.00531124 0 -0.00141712 -0.00537207 0 -0.00142128 -0.00543313 0 -0.00142537 -0.00549443 0 -0.00142938 -0.00555598 0 -0.00143331 -0.00561776 0 -0.00143717 -0.00567978 0 -0.00144095 -0.00574196 0 -0.00144466 -0.00580422 0 -0.00144829 -0.00586656 0 -0.00145184 -0.00592899 0 -0.00145533 -0.0059915 0 -0.00145874 -0.00605408 0 -0.00146207 -0.00611675 0 -0.00146533 -0.0061795 0 -0.00146852 -0.00624233 0 -0.00147163 -0.00630525 0 -0.00147467 -0.00636824 0 -0.00147763 -0.00643132 0 -0.00148052 -0.00649448 0 -0.00148333 -0.00655772 0 -0.00148607 -0.00662104 0 -0.00148874 -0.00668444 0 -0.00149133 -0.00674792 0 -0.00149385 -0.00681149 0 -0.0014963 -0.00687513 0 -0.00149867 -0.00693886 0 -0.00150096 -0.00700267 0 -0.00150318 -0.00706656 0 -0.00150533 -0.00713053 0 -0.0015074 -0.00719458 0 -0.0015094 -0.00725872 0 -0.00151133 -0.00732294 0 -0.00151318 -0.00738723 0 -0.00151495 -0.00745161 0 -0.00151665 -0.00751607 0 -0.00151828 -0.00758061 0 -0.00151984 -0.00764524 0 -0.00152132 -0.00770994 0 -0.00152272 -0.00777473 0 -0.00152405 -0.0078396 0 -0.00152531 -0.00790455 0 -0.00152649 -0.00796958 0 -0.0015276 -0.00803469 0 -0.00152863 -0.00809988 0 -0.00152959 -0.00816516 0 -0.00153048 -0.00823051 0 -0.00153129 -0.00829595 0 -0.00153203 -0.00836147 0 -0.00153269 -0.00842707 0 -0.00153328 -0.00849275 0 -0.00153379 -0.00855851 0 -0.00153423 -0.00862436 0 -0.0015346 -0.00869028 0 -0.00153489 -0.00875629 0 -0.00153511 -0.00882238 0 -0.00153525 -0.00888855 0 1.91206e-06 -5.45938e-05 0 -1.31865e-05 -5.70369e-05 0 -2.82107e-05 -6.004e-05 0 -4.31606e-05 -6.36029e-05 0 -5.80362e-05 -6.77256e-05 0 -7.28375e-05 -7.24083e-05 0 -8.75645e-05 -7.76509e-05 0 -0.000102217 -8.34533e-05 0 -0.000116796 -8.98156e-05 0 -0.0001313 -9.67378e-05 0 -0.000145729 -0.00010422 0 -0.000160085 -0.000112262 0 -0.000174366 -0.000120864 0 -0.000188573 -0.000130025 0 -0.000202706 -0.000139747 0 -0.000216764 -0.000150028 0 -0.000230748 -0.00016087 0 -0.000244657 -0.000172271 0 -0.000258493 -0.000184232 0 -0.000272254 -0.000196753 0 -0.000285941 -0.000209834 0 -0.000299553 -0.000223474 0 -0.000313091 -0.000237675 0 -0.000326555 -0.000252436 0 -0.000339945 -0.000267756 0 -0.00035326 -0.000283636 0 -0.000366501 -0.000300076 0 -0.000379667 -0.000317076 0 -0.00039276 -0.000334636 0 -0.000405778 -0.000352756 0 -0.000418722 -0.000371436 0 -0.000431591 -0.000390675 0 -0.000444386 -0.000410474 0 -0.000457107 -0.000430834 0 -0.000469753 -0.000451753 0 -0.000482326 -0.000473232 0 -0.000494823 -0.000495271 0 -0.000507247 -0.00051787 0 -0.000519596 -0.000541028 0 -0.000531871 -0.000564747 0 -0.000544072 -0.000589025 0 -0.000556198 -0.000613863 0 -0.000568251 -0.000639262 0 -0.000580228 -0.00066522 0 -0.000592132 -0.000691738 0 -0.000603961 -0.000718815 0 -0.000615716 -0.000746453 0 -0.000627396 -0.000774651 0 -0.000639003 -0.000803408 0 -0.000650535 -0.000832725 0 -0.000661992 -0.000862603 0 -0.000673375 -0.00089296 0 -0.000684681 -0.000923718 0 -0.00069591 -0.000954877 0 -0.000707063 -0.000986436 0 -0.00071814 -0.0010184 0 -0.00072914 -0.00105076 0 -0.000740064 -0.00108352 0 -0.000750911 -0.00111668 0 -0.000761682 -0.00115024 0 -0.000772377 -0.0011842 0 -0.000782995 -0.00121857 0 -0.000793537 -0.00125333 0 -0.000804002 -0.0012885 0 -0.000814391 -0.00132406 0 -0.000824703 -0.00136003 0 -0.00083494 -0.00139639 0 -0.000845099 -0.00143316 0 -0.000855183 -0.00147033 0 -0.000865189 -0.00150789 0 -0.00087512 -0.00154586 0 -0.000884974 -0.00158423 0 -0.000894751 -0.001623 0 -0.000904453 -0.00166217 0 -0.000914077 -0.00170174 0 -0.000923626 -0.00174171 0 -0.000933098 -0.00178209 0 -0.000942493 -0.00182286 0 -0.000951812 -0.00186403 0 -0.000961055 -0.00190561 0 -0.000970221 -0.00194758 0 -0.000979311 -0.00198996 0 -0.000988325 -0.00203273 0 -0.000997262 -0.00207591 0 -0.00100612 -0.00211948 0 -0.00101491 -0.00216346 0 -0.00102361 -0.00220784 0 -0.00103225 -0.00225262 0 -0.0010408 -0.0022978 0 -0.00104928 -0.00234338 0 -0.00105768 -0.00238936 0 -0.00106601 -0.00243574 0 -0.00107426 -0.00248252 0 -0.00108243 -0.0025297 0 -0.00109053 -0.00257728 0 -0.00109855 -0.00262527 0 -0.00110649 -0.00267365 0 -0.00111436 -0.00272243 0 -0.00112215 -0.00277162 0 -0.00112986 -0.00282121 0 -0.0011375 -0.00287119 0 -0.00114506 -0.0029215 0 -0.00115255 -0.00297204 0 -0.00115996 -0.00302283 0 -0.00116729 -0.00307385 0 -0.00117454 -0.00312511 0 -0.00118172 -0.00317662 0 -0.00118883 -0.00322836 0 -0.00119585 -0.00328034 0 -0.0012028 -0.00333256 0 -0.00120968 -0.00338501 0 -0.00121647 -0.00343771 0 -0.00122319 -0.00349065 0 -0.00122984 -0.00354383 0 -0.00123641 -0.00359724 0 -0.0012429 -0.0036509 0 -0.00124931 -0.00370479 0 -0.00