<?xml version="1.0"?> 
<VTKFile type="StructuredGrid" version="0.1"> 
<StructuredGrid WholeExtent="0 200 0 200 0 0"> 
<Piece Extent="0 200 0 200 0 0"> 
<PointData Vectors="Displ">
<DataArray type="Float32" Name="Displ" format="ascii" NumberOfComponents="3"> 
0 0 0 0.0161821 0.00505569 0 0.0323908 0.011001 0 0.0486262 0.0178361 0 0.0648883 0.0255607 0 0.081177 0.0341751 0 0.0974923 0.0436791 0 0.113834 0.0540727 0 0.130203 0.0653561 0 0.146598 0.0775291 0 0.16302 0.0905917 0 0.179469 0.104544 0 0.195944 0.119386 0 0.212446 0.135118 0 0.228974 0.151739 0 0.24553 0.16925 0 0.262112 0.187651 0 0.27872 0.206941 0 0.295355 0.227121 0 0.312017 0.24819 0 0.328705 0.27015 0 0.345421 0.292999 0 0.362162 0.316737 0 0.378931 0.341366 0 0.395726 0.366883 0 0.412547 0.393291 0 0.429396 0.420588 0 0.446271 0.448775 0 0.463172 0.477852 0 0.480101 0.507818 0 0.497056 0.538674 0 0.514037 0.57042 0 0.531045 0.603055 0 0.54808 0.63658 0 0.565142 0.670994 0 0.58223 0.706298 0 0.599345 0.742492 0 0.616486 0.779576 0 0.633655 0.817549 0 0.650849 0.856412 0 0.668071 0.896165 0 0.685319 0.936807 0 0.702594 0.978339 0 0.719895 1.02076 0 0.737223 1.06407 0 0.754578 1.10827 0 0.771959 1.15336 0 0.789367 1.19934 0 0.806802 1.24621 0 0.824263 1.29397 0 0.841751 1.34262 0 0.859266 1.39216 0 0.876807 1.44259 0 0.894375 1.49391 0 0.911969 1.54611 0 0.92959 1.59921 0 0.947238 1.6532 0 0.964913 1.70808 0 0.982614 1.76384 0 1.00034 1.8205 0 1.0181 1.87804 0 1.03588 1.93648 0 1.05368 1.9958 0 1.07152 2.05602 0 1.08938 2.11712 0 1.10727 2.17912 0 1.12518 2.242 0 1.14312 2.30578 0 1.16109 2.37044 0 1.17909 2.43599 0 1.19711 2.50243 0 1.21515 2.56977 0 1.23323 2.63799 0 1.25133 2.7071 0 1.26946 2.7771 0 1.28761 2.84799 0 1.30579 2.91977 0 1.324 2.99244 0 1.34223 3.066 0 1.36049 3.14045 0 1.37878 3.21579 0 1.3971 3.29202 0 1.41544 3.36914 0 1.4338 3.44714 0 1.4522 3.52604 0 1.47062 3.60583 0 1.48907 3.68651 0 1.50754 3.76807 0 1.52604 3.85053 0 1.54457 3.93388 0 1.56312 4.01811 0 1.5817 4.10324 0 1.60031 4.18925 0 1.61894 4.27616 0 1.6376 4.36395 0 1.65629 4.45263 0 1.675 4.54221 0 1.69375 4.63267 0 1.71251 4.72402 0 1.73131 4.81627 0 1.75013 4.9094 0 1.76819 5.00377 0 1.7847 5.09974 0 1.79966 5.19729 0 1.81308 5.29644 0 1.82495 5.39718 0 1.83528 5.49951 0 1.84405 5.60343 0 1.85128 5.70894 0 1.85696 5.81604 0 1.86109 5.92474 0 1.86368 6.03503 0 1.86472 6.1469 0 1.86421 6.26037 0 1.86215 6.37543 0 1.85855 6.49209 0 1.8534 6.61033 0 1.8467 6.73017 0 1.83846 6.85159 0 1.82866 6.97461 0 1.81732 7.09922 0 1.80444 7.22542 0 1.79 7.35321 0 1.77402 7.48259 0 1.75649 7.61357 0 1.73741 7.74613 0 1.71679 7.88029 0 1.69461 8.01604 0 1.6709 8.15338 0 1.64563 8.29231 0 1.61881 8.43283 0 1.59045 8.57495 0 1.56054 8.71865 0 1.52909 8.86395 0 1.49608 9.01084 0 1.46153 9.15932 0 1.42543 9.30939 0 1.38779 9.46105 0 1.34859 9.61431 0 1.30785 9.76915 0 1.26557 9.92559 0 1.22173 10.0836 0 1.17635 10.2432 0 1.12942 10.4044 0 1.08094 10.5673 0 1.03091 10.7316 0 0.979342 10.8976 0 0.926223 11.0652 0 0.871555 11.2344 0 0.815341 11.4051 0 0.757579 11.5775 0 0.69827 11.7514 0 0.637413 11.927 0 0.575009 12.1041 0 0.511057 12.2828 0 0.445558 12.4631 0 0.378512 12.645 0 0.309918 12.8285 0 0.239777 13.0136 0 0.168089 13.2002 0 0.094853 13.3885 0 0.0200697 13.5784 0 -0.0562609 13.7698 0 -0.134139 13.9629 0 -0.213564 14.1575 0 -0.294537 14.3537 0 -0.377057 14.5515 0 -0.461125 14.7509 0 -0.54674 14.9519 0 -0.633902 15.1545 0 -0.722612 15.3587 0 -0.812869 15.5645 0 -0.904673 15.7718 0 -0.998025 15.9808 0 -1.09292 16.1913 0 -1.18937 16.4034 0 -1.28737 16.6172 0 -1.38691 16.8325 0 -1.488 17.0494 0 -1.59063 17.2679 0 -1.69482 17.488 0 -1.80055 17.7097 0 -1.90782 17.9329 0 -2.01665 18.1578 0 -2.12702 18.3843 0 -2.23894 18.6123 0 -2.35241 18.842 0 -2.46743 19.0732 0 -2.58399 19.306 0 -2.7021 19.5404 0 -2.82176 19.7764 0 -2.94296 20.014 0 -3.06572 20.2532 0 -3.19001 20.494 0 -3.31586 20.7364 0 -3.44326 20.9803 0 -3.5722 21.2259 0 -3.70269 21.473 0 -3.83472 21.7218 0 -3.96831 21.9721 0 -4.10344 22.224 0 0 0 0 0.0165685 0.00521308 0 0.0331534 0.0113142 0 0.0497548 0.0183033 0 0.0663727 0.0261804 0 0.0830071 0.0349455 0 0.099658 0.0445986 0 0.116325 0.0551398 0 0.133009 0.0665689 0 0.14971 0.0788861 0 0.166426 0.0920913 0 0.18316 0.106184 0 0.19991 0.121166 0 0.216676 0.137035 0 0.233459 0.153792 0 0.250258 0.171437 0 0.267074 0.18997 0 0.283906 0.209392 0 0.300755 0.229701 0 0.31762 0.250898 0 0.334501 0.272983 0 0.3514 0.295957 0 0.368314 0.319818 0 0.385246 0.344567 0 0.402193 0.370205 0 0.419157 0.39673 0 0.436138 0.424143 0 0.453135 0.452445 0 0.470149 0.481634 0 0.487179 0.511711 0 0.504225 0.542677 0 0.521288 0.57453 0 0.538368 0.607271 0 0.555464 0.640901 0 0.572576 0.675418 0 0.589705 0.710823 0 0.606851 0.747117 0 0.624013 0.784298 0 0.641191 0.822368 0 0.658386 0.861325 0 0.675598 0.901171 0 0.692826 0.941904 0 0.71007 0.983525 0 0.727331 1.02603 0 0.744608 1.06943 0 0.761902 1.11372 0 0.779212 1.15889 0 0.796539 1.20495 0 0.813883 1.2519 0 0.831242 1.29974 0 0.848619 1.34847 0 0.866012 1.39808 0 0.883421 1.44858 0 0.900847 1.49997 0 0.918289 1.55225 0 0.935748 1.60541 0 0.953223 1.65947 0 0.970714 1.71441 0 0.988223 1.77024 0 1.00575 1.82696 0 1.02329 1.88456 0 1.04085 1.94306 0 1.05842 2.00244 0 1.07601 2.06271 0 1.09362 2.12386 0 1.11124 2.18591 0 1.12888 2.24884 0 1.14654 2.31267 0 1.16421 2.37737 0 1.1819 2.44297 0 1.19961 2.50946 0 1.21733 2.57683 0 1.23507 2.64509 0 1.25282 2.71424 0 1.2706 2.78428 0 1.28838 2.85521 0 1.30619 2.92702 0 1.32401 2.99972 0 1.34185 3.07331 0 1.3597 3.14779 0 1.37757 3.22316 0 1.39546 3.29941 0 1.41337 3.37655 0 1.43129 3.45458 0 1.44922 3.5335 0 1.46718 3.61331 0 1.48515 3.694 0 1.50313 3.77558 0 1.52113 3.85805 0 1.53915 3.94141 0 1.55719 4.02565 0 1.57524 4.11079 0 1.59331 4.19681 0 1.6114 4.28372 0 1.6295 4.37152 0 1.64762 4.4602 0 1.66575 4.54978 0 1.6839 4.64024 0 1.70207 4.73159 0 1.72025 4.82383 0 1.73845 4.91695 0 1.75589 5.01132 0 1.77178 5.10728 0 1.78613 5.20482 0 1.79893 5.30396 0 1.81019 5.40469 0 1.8199 5.50702 0 1.82807 5.61093 0 1.83469 5.71643 0 1.83977 5.82353 0 1.84331 5.93221 0 1.8453 6.04249 0 1.84574 6.15436 0 1.84464 6.26782 0 1.842 6.38287 0 1.83781 6.49951 0 1.83207 6.61775 0 1.8248 6.73757 0 1.81597 6.85899 0 1.8056 6.98199 0 1.79369 7.10659 0 1.78023 7.23278 0 1.76523 7.36056 0 1.74868 7.48993 0 1.73059 7.6209 0 1.71096 7.75345 0 1.68978 7.8876 0 1.66705 8.02333 0 1.64278 8.16066 0 1.61696 8.29958 0 1.5896 8.44009 0 1.5607 8.58219 0 1.53025 8.72588 0 1.49826 8.87117 0 1.46472 9.01804 0 1.42963 9.16651 0 1.39301 9.31656 0 1.35483 9.46821 0 1.31512 9.62145 0 1.27385 9.77628 0 1.23105 9.93271 0 1.18669 10.0907 0 1.1408 10.2503 0 1.09336 10.4115 0 1.04437 10.5743 0 0.993841 10.7387 0 0.941766 10.9047 0 0.888146 11.0722 0 0.832981 11.2414 0 0.776272 11.4121 0 0.718018 11.5844 0 0.658219 11.7584 0 0.596876 11.9339 0 0.533988 12.111 0 0.469555 12.2897 0 0.403578 12.47 0 0.336055 12.6519 0 0.266988 12.8353 0 0.196377 13.0204 0 0.124221 13.207 0 0.0505195 13.3953 0 -0.0247262 13.5851 0 -0.101517 13.7766 0 -0.179852 13.9696 0 -0.259732 14.1642 0 -0.341156 14.3604 0 -0.424125 14.5582 0 -0.508639 14.7576 0 -0.594698 14.9585 0 -0.682301 15.1611 0 -0.771449 15.3653 0 -0.862142 15.571 0 -0.95438 15.7784 0 -1.04816 15.9873 0 -1.14349 16.1978 0 -1.24036 16.4099 0 -1.33878 16.6236 0 -1.43874 16.8389 0 -1.54024 17.0558 0 -1.64329 17.2743 0 -1.74789 17.4944 0 -1.85403 17.716 0 -1.96171 17.9393 0 -2.07094 18.1641 0 -2.18172 18.3905 0 -2.29403 18.6186 0 -2.4079 18.8482 0 -2.52331 19.0794 0 -2.64026 19.3122 0 -2.75876 19.5466 0 -2.8788 19.7826 0 -3.00039 20.0201 0 -3.12352 20.2593 0 -3.24819 20.5001 0 -3.37441 20.7424 0 -3.50218 20.9863 0 -3.63149 21.2319 0 -3.76235 21.479 0 -3.89475 21.7277 0 -4.02869 21.978 0 -4.16418 22.2299 0 0 0 0 0.016948 0.00536782 0 0.0339024 0.011622 0 0.0508631 0.0187627 0 0.0678303 0.0267897 0 0.0848039 0.0357031 0 0.101784 0.0455029 0 0.11877 0.0561891 0 0.135763 0.0677617 0 0.152762 0.0802207 0 0.169767 0.0935661 0 0.186779 0.107798 0 0.203798 0.122916 0 0.220822 0.138921 0 0.237853 0.155812 0 0.254891 0.173589 0 0.271935 0.192253 0 0.288985 0.211803 0 0.306041 0.232239 0 0.323104 0.253562 0 0.340174 0.275772 0 0.35725 0.298868 0 0.374332 0.32285 0 0.39142 0.347718 0 0.408515 0.373473 0 0.425617 0.400114 0 0.442724 0.427642 0 0.459838 0.456056 0 0.476959 0.485357 0 0.494086 0.515544 0 0.511219 0.546617 0 0.528359 0.578577 0 0.545505 0.611423 0 0.562657 0.645155 0 0.579816 0.679774 0 0.596981 0.71528 0 0.614153 0.751671 0 0.631331 0.788949 0 0.648515 0.827114 0 0.665706 0.866165 0 0.682903 0.906102 0 0.700107 0.946926 0 0.717317 0.988636 0 0.734533 1.03123 0 0.751756 1.07472 0 0.768985 1.11908 0 0.78622 1.16434 0 0.803462 1.21048 0 0.820711 1.25751 0 0.837965 1.30543 0 0.855226 1.35423 0 0.872494 1.40391 0 0.889768 1.45449 0 0.907048 1.50595 0 0.924334 1.5583 0 0.941627 1.61153 0 0.958927 1.66565 0 0.976233 1.72065 0 0.993545 1.77655 0 1.01086 1.83333 0 1.02819 1.89099 0 1.04552 1.94954 0 1.06286 2.00898 0 1.0802 2.0693 0 1.09755 2.13052 0 1.11491 2.19261 0 1.13227 2.2556 0 1.14964 2.31947 0 1.16702 2.38422 0 1.1844 2.44987 0 1.20179 2.51639 0 1.21918 2.58381 0 1.23659 2.65211 0 1.25399 2.7213 0 1.27141 2.79138 0 1.28883 2.86234 0 1.30626 2.93418 0 1.32369 3.00692 0 1.34113 3.08054 0 1.35858 3.15504 0 1.37603 3.23044 0 1.39349 3.30672 0 1.41095 3.38388 0 1.42843 3.46194 0 1.4459 3.54087 0 1.46339 3.6207 0 1.48088 3.70141 0 1.49838 3.78301 0 1.51588 3.86549 0 1.53339 3.94886 0 1.55091 4.03312 0 1.56843 4.11826 0 1.58596 4.20429 0 1.6035 4.29121 0 1.62104 4.37901 0 1.63859 4.4677 0 1.65614 4.55728 0 1.6737 4.64774 0 1.69127 4.73909 0 1.70884 4.83132 0 1.72643 4.92444 0 1.74324 5.0188 0 1.75851 5.11475 0 1.77224 5.2123 0 1.78442 5.31143 0 1.79507 5.41215 0 1.80417 5.51447 0 1.81173 5.61837 0 1.81775 5.72387 0 1.82223 5.83096 0 1.82517 5.93964 0 1.82656 6.04991 0 1.82641 6.16177 0 1.82472 6.27522 0 1.82149 6.39026 0 1.81671 6.50689 0 1.8104 6.62512 0 1.80254 6.74493 0 1.79314 6.86634 0 1.78219 6.98934 0 1.76971 7.11393 0 1.75568 7.24011 0 1.74012 7.36788 0 1.72301 7.49724 0 1.70435 7.62819 0 1.68416 7.76073 0 1.66242 7.89487 0 1.63915 8.03059 0 1.61433 8.16791 0 1.58797 8.30682 0 1.56006 8.44732 0 1.53062 8.58941 0 1.49963 8.73309 0 1.4671 8.87836 0 1.43303 9.02522 0 1.39741 9.17367 0 1.36026 9.32372 0 1.32156 9.47535 0 1.28132 9.62858 0 1.23954 9.7834 0 1.19622 9.93981 0 1.15135 10.0978 0 1.10495 10.2574 0 1.057 10.4186 0 1.00751 10.5813 0 0.956473 10.7457 0 0.903899 10.9117 0 0.849782 11.0792 0 0.794123 11.2483 0 0.736923 11.4191 0 0.67818 11.5914 0 0.617896 11.7653 0 0.556069 11.9408 0 0.492701 12.1179 0 0.427791 12.2966 0 0.361338 12.4768 0 0.293344 12.6587 0 0.223808 12.8422 0 0.15273 13.0272 0 0.0801098 13.2139 0 0.00594779 13.4021 0 -0.0697561 13.5919 0 -0.147002 13.7833 0 -0.22579 13.9763 0 -0.30612 14.1709 0 -0.387991 14.3671 0 -0.471405 14.5649 0 -0.556361 14.7642 0 -0.642858 14.9652 0 -0.730898 15.1677 0 -0.820479 15.3719 0 -0.911602 15.5776 0 -1.00427 15.7849 0 -1.09848 15.9938 0 -1.19422 16.2043 0 -1.29152 16.4164 0 -1.39035 16.6301 0 -1.49072 16.8454 0 -1.59264 17.0622 0 -1.6961 17.2807 0 -1.8011 17.5008 0 -1.90764 17.7224 0 -2.01573 17.9456 0 -2.12535 18.1704 0 -2.23652 18.3969 0 -2.34923 18.6249 0 -2.46349 18.8544 0 -2.57928 19.0856 0 -2.69662 19.3184 0 -2.8155 19.5528 0 -2.93592 19.7887 0 -3.05788 20.0263 0 -3.18138 20.2654 0 -3.30643 20.5062 0 -3.43302 20.7485 0 -3.56115 20.9924 0 -3.69082 21.2379 0 -3.82203 21.485 0 -3.95479 21.7337 0 -4.08909 21.9839 0 -4.22493 22.2358 0 0 0 0 0.0173207 0.00551991 0 0.0346378 0.0119246 0 0.0519512 0.0192142 0 0.069261 0.0273886 0 0.0865672 0.0364478 0 0.10387 0.0463918 0 0.121169 0.0572207 0 0.138464 0.0689343 0 0.155755 0.0815328 0 0.173043 0.0950161 0 0.190328 0.109384 0 0.207608 0.124637 0 0.224885 0.140775 0 0.242159 0.157798 0 0.259428 0.175705 0 0.276694 0.194497 0 0.293957 0.214174 0 0.311216 0.234736 0 0.328471 0.256183 0 0.345722 0.278515 0 0.36297 0.301731 0 0.380214 0.325832 0 0.397455 0.350818 0 0.414692 0.376689 0 0.431925 0.403445 0 0.449155 0.431085 0 0.466381 0.459611 0 0.483603 0.489021 0 0.500822 0.519316 0 0.518037 0.550496 0 0.535248 0.58256 0 0.552456 0.61551 0 0.56966 0.649344 0 0.586861 0.684063 0 0.604058 0.719667 0 0.621251 0.756156 0 0.638441 0.793529 0 0.655626 0.831788 0 0.672809 0.870931 0 0.689987 0.910959 0 0.707162 0.951872 0 0.724334 0.993669 0 0.741501 1.03635 0 0.758666 1.07992 0 0.775826 1.12437 0 0.792983 1.16971 0 0.810136 1.21593 0 0.827285 1.26304 0 0.844431 1.31103 0 0.861574 1.3599 0 0.878712 1.40967 0 0.895847 1.46031 0 0.912978 1.51184 0 0.930106 1.56426 0 0.94723 1.61756 0 0.96435 1.67174 0 0.981467 1.72681 0 0.99858 1.78277 0 1.01569 1.83961 0 1.0328 1.89733 0 1.0499 1.95594 0 1.067 2.01544 0 1.08409 2.07581 0 1.10118 2.13708 0 1.11827 2.19923 0 1.13535 2.26226 0 1.15243 2.32618 0 1.16951 2.39098 0 1.18658 2.45667 0 1.20365 2.52324 0 1.22072 2.5907 0 1.23778 2.65904 0 1.25484 2.72827 0 1.27189 2.79838 0 1.28894 2.86938 0 1.30599 2.94126 0 1.32304 3.01403 0 1.34008 3.08768 0 1.35711 3.16221 0 1.37415 3.23764 0 1.39118 3.31394 0 1.4082 3.39113 0 1.42522 3.46921 0 1.44224 3.54817 0 1.45926 3.62801 0 1.47627 3.70874 0 1.49327 3.79036 0 1.51028 3.87286 0 1.52728 3.95624 0 1.54427 4.04051 0 1.56127 4.12566 0 1.57826 4.2117 0 1.59524 4.29863 0 1.61222 4.38644 0 1.6292 4.47513 0 1.64618 4.56471 0 1.66315 4.65517 0 1.68012 4.74652 0 1.69708 4.83875 0 1.71404 4.93187 0 1.73023 5.02622 0 1.74488 5.12217 0 1.75799 5.21971 0 1.76956 5.31883 0 1.77959 5.41955 0 1.78808 5.52186 0 1.79504 5.62576 0 1.80045 5.73125 0 1.80433 5.83833 0 1.80667 5.94701 0 1.80746 6.05727 0 1.80672 6.16912 0 1.80444 6.28257 0 1.80062 6.3976 0 1.79526 6.51423 0 1.78837 6.63245 0 1.77993 6.75225 0 1.76995 6.87365 0 1.75844 6.99664 0 1.74538 7.12122 0 1.73079 7.24739 0 1.71466 7.37516 0 1.69698 7.50451 0 1.67777 7.63545 0 1.65702 7.76798 0 1.63473 7.90211 0 1.61091 8.03783 0 1.58554 8.17513 0 1.55863 8.31403 0 1.53019 8.45452 0 1.5002 8.5966 0 1.46868 8.74027 0 1.43562 8.88553 0 1.40101 9.03238 0 1.36487 9.18082 0 1.32719 9.33085 0 1.28797 9.48248 0 1.24722 9.63569 0 1.20492 9.79049 0 1.16108 9.94689 0 1.11571 10.1049 0 1.06879 10.2645 0 1.02034 10.4256 0 0.970345 10.5884 0 0.918813 10.7527 0 0.865741 10.9187 0 0.811131 11.0862 0 0.754982 11.2553 0 0.697293 11.426 0 0.638065 11.5983 0 0.577299 11.7722 0 0.514993 11.9477 0 0.451148 12.1248 0 0.385764 12.3035 0 0.318841 12.4837 0 0.250378 12.6656 0 0.180377 12.849 0 0.108836 13.034 0 0.0357566 13.2207 0 -0.0388621 13.4089 0 -0.11502 13.5987 0 -0.192717 13.7901 0 -0.271953 13.9831 0 -0.352728 14.1776 0 -0.435042 14.3738 0 -0.518896 14.5715 0 -0.604288 14.7709 0 -0.69122 14.9718 0 -0.779691 15.1744 0 -0.869701 15.3785 0 -0.961249 15.5842 0 -1.05434 15.7915 0 -1.14896 16.0004 0 -1.24513 16.2109 0 -1.34284 16.4229 0 -1.44208 16.6366 0 -1.54286 16.8519 0 -1.64519 17.0687 0 -1.74905 17.2871 0 -1.85445 17.5072 0 -1.96139 17.7288 0 -2.06987 17.952 0 -2.17989 18.1768 0 -2.29144 18.4032 0 -2.40454 18.6312 0 -2.51918 18.8607 0 -2.63535 19.0919 0 -2.75307 19.3247 0 -2.87232 19.559 0 -2.99311 19.7949 0 -3.11544 20.0325 0 -3.23931 20.2716 0 -3.36472 20.5123 0 -3.49167 20.7546 0 -3.62016 20.9985 0 -3.75018 21.2439 0 -3.88175 21.491 0 -4.01485 21.7397 0 -4.1495 21.9899 0 -4.28568 22.2418 0 0 0 0 0.0176866 0.00566934 0 0.0353597 0.012222 0 0.0530191 0.0196579 0 0.0706649 0.0279771 0 0.0882971 0.0371796 0 0.105916 0.0472654 0 0.123521 0.0582345 0 0.141112 0.0700869 0 0.15869 0.0828225 0 0.176254 0.0964415 0 0.193805 0.110944 0 0.211341 0.126329 0 0.228865 0.142598 0 0.246375 0.15975 0 0.263871 0.177786 0 0.281353 0.196704 0 0.298822 0.216506 0 0.316277 0.237192 0 0.333719 0.25876 0 0.351147 0.281212 0 0.368561 0.304547 0 0.385962 0.328766 0 0.40335 0.353868 0 0.420723 0.379853 0 0.438083 0.406721 0 0.45543 0.434473 0 0.472762 0.463107 0 0.490082 0.492626 0 0.507387 0.523027 0 0.524679 0.554312 0 0.541957 0.58648 0 0.559222 0.619531 0 0.576473 0.653466 0 0.593711 0.688284 0 0.610935 0.723985 0 0.628145 0.76057 0 0.645342 0.798038 0 0.662525 0.836389 0 0.679694 0.875623 0 0.69685 0.915741 0 0.713993 0.956742 0 0.731121 0.998626 0 0.748236 1.04139 0 0.765338 1.08504 0 0.782425 1.12958 0 0.7995 1.175 0 0.81656 1.2213 0 0.833607 1.26848 0 0.850641 1.31655 0 0.86766 1.3655 0 0.884667 1.41533 0 0.901659 1.46605 0 0.918638 1.51765 0 0.935603 1.57013 0 0.952555 1.6235 0 0.969493 1.67775 0 0.986418 1.73289 0 1.00333 1.7889 0 1.02023 1.8458 0 1.03711 1.90359 0 1.05398 1.96225 0 1.07084 2.0218 0 1.08768 2.08224 0 1.10451 2.14355 0 1.12132 2.20575 0 1.13813 2.26884 0 1.15491 2.3328 0 1.17169 2.39765 0 1.18845 2.46339 0 1.2052 2.53 0 1.22193 2.5975 0 1.23865 2.66589 0 1.25536 2.73515 0 1.27205 2.8053 0 1.28873 2.87633 0 1.3054 2.94825 0 1.32205 3.02105 0 1.33869 3.09473 0 1.35531 3.1693 0 1.37193 3.24475 0 1.38852 3.32108 0 1.40511 3.3983 0 1.42168 3.4764 0 1.43823 3.55538 0 1.45478 3.63525 0 1.47131 3.71599 0 1.48782 3.79763 0 1.50433 3.88014 0 1.52082 3.96354 0 1.53729 4.04782 0 1.55375 4.13299 0 1.5702 4.21904 0 1.58664 4.30597 0 1.60306 4.39379 0 1.61946 4.48248 0 1.63586 4.57207 0 1.65224 4.66253 0 1.6686 4.75388 0 1.68496 4.84611 0 1.7013 4.93923 0 1.71686 5.03358 0 1.73089 5.12952 0 1.74338 5.22706 0 1.75434 5.32618 0 1.76376 5.42689 0 1.77164 5.5292 0 1.77799 5.63309 0 1.7828 5.73858 0 1.78607 5.84566 0 1.78781 5.95433 0 1.78801 6.06458 0 1.78668 6.17643 0 1.78381 6.28987 0 1.7794 6.4049 0 1.77346 6.52152 0 1.76598 6.63973 0 1.75697 6.75953 0 1.74642 6.88092 0 1.73433 7.00391 0 1.72071 7.12848 0 1.70555 7.25464 0 1.68885 7.3824 0 1.67062 7.51174 0 1.65085 7.64268 0 1.62955 7.7752 0 1.60671 7.90932 0 1.58233 8.04503 0 1.55642 8.18232 0 1.52897 8.32121 0 1.49998 8.46169 0 1.46946 8.60376 0 1.4374 8.74742 0 1.40381 8.89267 0 1.36868 9.03951 0 1.33201 9.18794 0 1.29381 9.33797 0 1.25407 9.48958 0 1.2128 9.64278 0 1.16999 9.79758 0 1.12564 9.95396 0 1.07975 10.1119 0 1.03233 10.2715 0 0.983379 10.4327 0 0.932887 10.5954 0 0.880858 10.7597 0 0.827294 10.9257 0 0.772193 11.0932 0 0.715556 11.2623 0 0.657383 11.433 0 0.597674 11.6053 0 0.536428 11.7792 0 0.473647 11.9546 0 0.409329 12.1317 0 0.343475 12.3104 0 0.276084 12.4906 0 0.207158 12.6724 0 0.136695 12.8559 0 0.0646962 13.0409 0 -0.00883892 13.2275 0 -0.0839102 13.4157 0 -0.160518 13.6055 0 -0.238661 13.7968 0 -0.318341 13.9898 0 -0.399557 14.1844 0 -0.48231 14.3805 0 -0.566598 14.5782 0 -0.652423 14.7776 0 -0.739784 14.9785 0 -0.828681 15.181 0 -0.919114 15.3851 0 -1.01108 15.5908 0 -1.10459 15.7981 0 -1.19963 16.007 0 -1.29621 16.2174 0 -1.39432 16.4295 0 -1.49397 16.6431 0 -1.59516 16.8584 0 -1.69788 17.0752 0 -1.80214 17.2936 0 -1.90794 17.5136 0 -2.01527 17.7352 0 -2.12414 17.9584 0 -2.23454 18.1832 0 -2.34648 18.4095 0 -2.45996 18.6375 0 -2.57497 18.8671 0 -2.69152 19.0982 0 -2.8096 19.3309 0 -2.92922 19.5652 0 -3.05038 19.8012 0 -3.17307 20.0387 0 -3.2973 20.2778 0 -3.42307 20.5184 0 -3.55037 20.7607 0 -3.67921 21.0046 0 -3.80958 21.25 0 -3.94149 21.4971 0 -4.07494 21.7457 0 -4.20992 21.996 0 -4.34644 22.2478 0 0 0 0 0.0180458 0.00581611 0 0.036068 0.012514 0 0.0540667 0.0200937 0 0.0720419 0.0285552 0 0.0899937 0.0378985 0 0.107922 0.0481237 0 0.125827 0.0592306 0 0.143708 0.0712193 0 0.161565 0.0840898 0 0.1794 0.0978421 0 0.19721 0.112476 0 0.214997 0.127992 0 0.232761 0.14439 0 0.250501 0.161669 0 0.268218 0.179831 0 0.285911 0.198874 0 0.30358 0.218799 0 0.321226 0.239605 0 0.338849 0.261294 0 0.356448 0.283864 0 0.374024 0.307316 0 0.391576 0.33165 0 0.409104 0.356866 0 0.426609 0.382964 0 0.444091 0.409943 0 0.461549 0.437804 0 0.478983 0.466547 0 0.496394 0.496172 0 0.513781 0.526678 0 0.531145 0.558066 0 0.548486 0.590337 0 0.565803 0.623488 0 0.583096 0.657522 0 0.600366 0.692438 0 0.617612 0.728235 0 0.634835 0.764914 0 0.652035 0.802475 0 0.669211 0.840918 0 0.686363 0.880242 0 0.703492 0.920449 0 0.720597 0.961537 0 0.737679 1.00351 0 0.754737 1.04636 0 0.771772 1.09009 0 0.788783 1.13471 0 0.805771 1.1802 0 0.822735 1.22658 0 0.839676 1.27384 0 0.856593 1.32199 0 0.873487 1.37101 0 0.890357 1.42092 0 0.907204 1.4717 0 0.924027 1.52337 0 0.940827 1.57593 0 0.957603 1.62936 0 0.974356 1.68367 0 0.991085 1.73887 0 1.00779 1.79495 0 1.02447 1.85191 0 1.04113 1.90975 0 1.05777 1.96848 0 1.07438 2.02808 0 1.09097 2.08857 0 1.10753 2.14994 0 1.12407 2.21219 0 1.14059 2.27532 0 1.15708 2.33934 0 1.17355 2.40424 0 1.19 2.47002 0 1.20642 2.53668 0 1.22282 2.60422 0 1.2392 2.67264 0 1.25555 2.74195 0 1.27188 2.81213 0 1.28819 2.8832 0 1.30447 2.95516 0 1.32073 3.02799 0 1.33697 3.1017 0 1.35318 3.1763 0 1.36937 3.25178 0 1.38553 3.32814 0 1.40167 3.40538 0 1.41779 3.4835 0 1.43388 3.56251 0 1.44996 3.6424 0 1.466 3.72317 0 1.48203 3.80482 0 1.49803 3.88735 0 1.514 3.97076 0 1.52996 4.05506 0 1.54589 4.14024 0 1.56179 4.2263 0 1.57768 4.31324 0 1.59354 4.40106 0 1.60937 4.48977 0 1.62518 4.57936 0 1.64097 4.66982 0 1.65674 4.76118 0 1.67248 4.85341 0 1.6882 4.94652 0 1.70314 5.04087 0 1.71654 5.13681 0 1.72842 5.23434 0 1.73876 5.33347 0 1.74756 5.43418 0 1.75484 5.53648 0 1.76058 5.64037 0 1.76479 5.74586 0 1.76746 5.85293 0 1.7686 5.96159 0 1.76821 6.07185 0 1.76628 6.18369 0 1.76282 6.29713 0 1.75783 6.41215 0 1.75131 6.52877 0 1.74325 6.64697 0 1.73366 6.76677 0 1.72253 6.88815 0 1.70987 7.01113 0 1.69568 7.1357 0 1.67996 7.26186 0 1.6627 7.3896 0 1.64391 7.51894 0 1.62359 7.64987 0 1.60173 7.78239 0 1.57834 7.9165 0 1.55342 8.0522 0 1.52696 8.18949 0 1.49897 8.32837 0 1.46945 8.46884 0 1.43839 8.6109 0 1.4058 8.75455 0 1.37168 8.89979 0 1.33602 9.04662 0 1.29883 9.19505 0 1.26011 9.34506 0 1.21985 9.49666 0 1.17806 9.64986 0 1.13474 9.80464 0 1.08989 9.96101 0 1.0435 10.119 0 0.995575 10.2785 0 0.94612 10.4397 0 0.895132 10.6024 0 0.842611 10.7667 0 0.788556 10.9327 0 0.732968 11.1002 0 0.675847 11.2693 0 0.617193 11.4399 0 0.557005 11.6122 0 0.495284 11.7861 0 0.43203 11.9616 0 0.367243 12.1386 0 0.300923 12.3172 0 0.233069 12.4975 0 0.163683 12.6793 0 0.0927627 12.8627 0 0.0203095 13.0477 0 -0.0536769 13.2343 0 -0.129197 13.4225 0 -0.206249 13.6122 0 -0.284835 13.8036 0 -0.364955 13.9966 0 -0.446607 14.1911 0 -0.529793 14.3872 0 -0.614512 14.585 0 -0.700764 14.7843 0 -0.788549 14.9852 0 -0.877867 15.1877 0 -0.968719 15.3918 0 -1.0611 15.5974 0 -1.15502 15.8047 0 -1.25047 16.0136 0 -1.34746 16.224 0 -1.44598 16.436 0 -1.54603 16.6497 0 -1.64761 16.8649 0 -1.75073 17.0817 0 -1.85538 17.3001 0 -1.96156 17.5201 0 -2.06928 17.7416 0 -2.17853 17.9648 0 -2.28931 18.1896 0 -2.40163 18.4159 0 -2.51548 18.6439 0 -2.63086 18.8734 0 -2.74778 19.1045 0 -2.86623 19.3372 0 -2.98621 19.5715 0 -3.10773 19.8074 0 -3.23078 20.0449 0 -3.35536 20.284 0 -3.48147 20.5246 0 -3.60912 20.7669 0 -3.73831 21.0107 0 -3.86902 21.2562 0 -4.00127 21.5032 0 -4.13505 21.7518 0 -4.27037 22.002 0 -4.40721 22.2538 0 0 0 0 0.0183981 0.00596023 0 0.0367628 0.0128008 0 0.0550941 0.0205217 0 0.0733921 0.029123 0 0.0916568 0.0386046 0 0.109888 0.0489666 0 0.128086 0.0602089 0 0.146251 0.0723316 0 0.164382 0.0853346 0 0.18248 0.099218 0 0.200545 0.113982 0 0.218576 0.129626 0 0.236574 0.14615 0 0.254538 0.163555 0 0.272469 0.18184 0 0.290367 0.201006 0 0.308232 0.221051 0 0.326063 0.241978 0 0.343861 0.263784 0 0.361625 0.286471 0 0.379356 0.310038 0 0.397054 0.334486 0 0.414719 0.359814 0 0.43235 0.386022 0 0.449947 0.41311 0 0.467512 0.441079 0 0.485043 0.469929 0 0.50254 0.499658 0 0.520005 0.530268 0 0.537436 0.561759 0 0.554834 0.594129 0 0.572198 0.627381 0 0.589529 0.661512 0 0.606826 0.696524 0 0.624091 0.732416 0 0.641322 0.769188 0 0.658519 0.806841 0 0.675683 0.845374 0 0.692814 0.884788 0 0.709912 0.925082 0 0.726976 0.966256 0 0.744007 1.00831 0 0.761004 1.05125 0 0.777969 1.09506 0 0.794899 1.13976 0 0.811797 1.18533 0 0.828661 1.23179 0 0.845492 1.27912 0 0.862289 1.32734 0 0.879053 1.37644 0 0.895784 1.42642 0 0.912481 1.47728 0 0.929145 1.52901 0 0.945776 1.58163 0 0.962373 1.63513 0 0.978937 1.68951 0 0.995468 1.74477 0 1.01197 1.80091 0 1.02843 1.85793 0 1.04486 1.91583 0 1.06126 1.97461 0 1.07762 2.03427 0 1.09395 2.09482 0 1.11025 2.15624 0 1.12651 2.21854 0 1.14274 2.28172 0 1.15894 2.34579 0 1.1751 2.41073 0 1.19123 2.47656 0 1.20733 2.54326 0 1.2234 2.61084 0 1.23943 2.67931 0 1.25542 2.74865 0 1.27139 2.81888 0 1.28732 2.88999 0 1.30321 2.96197 0 1.31908 3.03484 0 1.33491 3.10859 0 1.35071 3.18321 0 1.36647 3.25872 0 1.3822 3.33511 0 1.3979 3.41238 0 1.41356 3.49053 0 1.42919 3.56956 0 1.44479 3.64947 0 1.46035 3.73026 0 1.47588 3.81193 0 1.49138 3.89448 0 1.50684 3.97791 0 1.52227 4.06222 0 1.53767 4.14741 0 1.55303 4.23348 0 1.56836 4.32044 0 1.58366 4.40827 0 1.59892 4.49698 0 1.61415 4.58657 0 1.62935 4.67705 0 1.64451 4.7684 0 1.65964 4.86064 0 1.67474 4.95375 0 1.68906 5.0481 0 1.70184 5.14404 0 1.7131 5.24157 0 1.72282 5.34069 0 1.73101 5.4414 0 1.73768 5.5437 0 1.74281 5.64759 0 1.74642 5.75308 0 1.74849 5.86015 0 1.74903 5.96881 0 1.74805 6.07906 0 1.74553 6.1909 0 1.74148 6.30433 0 1.73591 6.41935 0 1.7288 6.53597 0 1.72016 6.65417 0 1.71 6.77396 0 1.6983 6.89534 0 1.68507 7.01831 0 1.67031 7.14288 0 1.65402 7.26903 0 1.63621 7.39677 0 1.61686 7.52611 0 1.59598 7.65703 0 1.57357 7.78954 0 1.54963 7.92364 0 1.52416 8.05934 0 1.49716 8.19662 0 1.46864 8.3355 0 1.43858 8.47596 0 1.40699 8.61801 0 1.37387 8.76166 0 1.33922 8.90689 0 1.30304 9.05372 0 1.26533 9.20213 0 1.22609 9.35213 0 1.18532 9.50373 0 1.14302 9.65691 0 1.09919 9.81169 0 1.05383 9.96805 0 1.00693 10.126 0 0.958513 10.2856 0 0.908562 10.4467 0 0.857081 10.6094 0 0.804069 10.7737 0 0.749528 10.9396 0 0.693456 11.1071 0 0.635854 11.2762 0 0.576722 11.4469 0 0.51606 11.6192 0 0.453867 11.793 0 0.390145 11.9685 0 0.324892 12.1455 0 0.258109 12.3241 0 0.189796 12.5043 0 0.119953 12.6862 0 0.0485797 12.8695 0 -0.0243237 13.0545 0 -0.0987573 13.2411 0 -0.174721 13.4293 0 -0.252215 13.619 0 -0.331239 13.8104 0 -0.411793 14.0033 0 -0.493877 14.1979 0 -0.577492 14.394 0 -0.662636 14.5917 0 -0.749311 14.791 0 -0.837516 14.9919 0 -0.927251 15.1943 0 -1.01852 15.3984 0 -1.11131 15.6041 0 -1.20564 15.8113 0 -1.30149 16.0202 0 -1.39888 16.2306 0 -1.49779 16.4426 0 -1.59824 16.6562 0 -1.70022 16.8714 0 -1.80372 17.0882 0 -1.90876 17.3066 0 -2.01533 17.5266 0 -2.12342 17.7481 0 -2.23305 17.9713 0 -2.34421 18.196 0 -2.45689 18.4223 0 -2.57111 18.6503 0 -2.68686 18.8798 0 -2.80414 19.1109 0 -2.92295 19.3436 0 -3.04328 19.5778 0 -3.16515 19.8137 0 -3.28855 20.0512 0 -3.41348 20.2902 0 -3.53994 20.5309 0 -3.66793 20.7731 0 -3.79744 21.0169 0 -3.92849 21.2623 0 -4.06107 21.5093 0 -4.19518 21.7579 0 -4.33082 22.0081 0 -4.46799 22.2599 0 0 0 0 0.0187435 0.00610169 0 0.037444 0.0130823 0 0.0561013 0.0209419 0 0.0747155 0.0296804 0 0.0932865 0.0392978 0 0.111814 0.0497942 0 0.130299 0.0611695 0 0.148741 0.0734238 0 0.16714 0.086557 0 0.185495 0.100569 0 0.203808 0.11546 0 0.222077 0.13123 0 0.240303 0.147879 0 0.258486 0.165407 0 0.276626 0.183814 0 0.294723 0.2031 0 0.312776 0.223264 0 0.330787 0.244308 0 0.348754 0.266231 0 0.366679 0.289032 0 0.38456 0.312713 0 0.402398 0.337272 0 0.420193 0.36271 0 0.437945 0.389028 0 0.455653 0.416224 0 0.473319 0.444299 0 0.490942 0.473253 0 0.508521 0.503086 0 0.526057 0.533798 0 0.54355 0.565389 0 0.561 0.597859 0 0.578407 0.631208 0 0.595771 0.665435 0 0.613092 0.700542 0 0.630369 0.736528 0 0.647604 0.773392 0 0.664795 0.811136 0 0.681944 0.849758 0 0.699049 0.88926 0 0.716111 0.92964 0 0.73313 0.970899 0 0.750105 1.01304 0 0.767038 1.05605 0 0.783927 1.09995 0 0.800774 1.14473 0 0.817577 1.19038 0 0.834337 1.23691 0 0.851054 1.28432 0 0.867728 1.33261 0 0.884359 1.38178 0 0.900947 1.43183 0 0.917491 1.48276 0 0.933993 1.53457 0 0.950451 1.58725 0 0.966867 1.64082 0 0.983239 1.69526 0 0.999568 1.75058 0 1.01585 1.80678 0 1.0321 1.86386 0 1.0483 1.92182 0 1.06445 1.98066 0 1.08057 2.04038 0 1.09664 2.10097 0 1.11266 2.16245 0 1.12865 2.2248 0 1.14459 2.28804 0 1.16049 2.35215 0 1.17634 2.41714 0 1.19215 2.48301 0 1.20792 2.54976 0 1.22365 2.61738 0 1.23933 2.68589 0 1.25497 2.75527 0 1.27056 2.82554 0 1.28612 2.89668 0 1.30163 2.9687 0 1.31709 3.04161 0 1.33252 3.11539 0 1.3479 3.19004 0 1.36323 3.26558 0 1.37853 3.342 0 1.39378 3.41929 0 1.40899 3.49747 0 1.42415 3.57652 0 1.43927 3.65646 0 1.45435 3.73727 0 1.46939 3.81896 0 1.48438 3.90153 0 1.49933 3.98497 0 1.51424 4.0693 0 1.5291 4.15451 0 1.54392 4.24059 0 1.5587 4.32756 0 1.57343 4.4154 0 1.58812 4.50412 0 1.60277 4.59372 0 1.61737 4.6842 0 1.63193 4.77556 0 1.64645 4.8678 0 1.66093 4.96092 0 1.67462 5.05527 0 1.68678 5.15121 0 1.69742 5.24874 0 1.70652 5.34786 0 1.71411 5.44857 0 1.72016 5.55087 0 1.72469 5.65476 0 1.72769 5.76024 0 1.72916 5.86731 0 1.72911 5.97597 0 1.72753 6.08622 0 1.72442 6.19806 0 1.71979 6.31149 0 1.71363 6.42651 0 1.70594 6.54312 0 1.69672 6.66132 0 1.68598 6.78111 0 1.67371 6.90249 0 1.65992 7.02546 0 1.64459 7.15002 0 1.62774 7.27617 0 1.60937 7.40391 0 1.58946 7.53323 0 1.56803 7.66415 0 1.54507 7.79666 0 1.52059 7.93076 0 1.49457 8.06645 0 1.46704 8.20373 0 1.43797 8.34259 0 1.40738 8.48305 0 1.37526 8.6251 0 1.34161 8.76874 0 1.30643 8.91397 0 1.26973 9.06078 0 1.2315 9.20919 0 1.19175 9.35919 0 1.15047 9.51078 0 1.10766 9.66395 0 1.06332 9.81872 0 1.01746 9.97508 0 0.970067 10.133 0 0.921149 10.2926 0 0.870705 10.4537 0 0.818733 10.6164 0 0.765235 10.7807 0 0.710209 10.9466 0 0.653657 11.1141 0 0.595577 11.2832 0 0.535971 11.4538 0 0.474837 11.6261 0 0.412177 11.7999 0 0.347989 11.9754 0 0.282274 12.1524 0 0.215033 12.331 0 0.146264 12.5112 0 0.0759687 12.693 0 0.00414613 12.8764 0 -0.0692035 13.0614 0 -0.14408 13.2479 0 -0.220484 13.4361 0 -0.298414 13.6258 0 -0.377872 13.8172 0 -0.458857 14.0101 0 -0.541368 14.2046 0 -0.625407 14.4007 0 -0.710973 14.5984 0 -0.798065 14.7977 0 -0.886685 14.9986 0 -0.976832 15.201 0 -1.06851 15.4051 0 -1.16171 15.6107 0 -1.25643 15.818 0 -1.35269 16.0268 0 -1.45047 16.2372 0 -1.54978 16.4492 0 -1.65062 16.6628 0 -1.75298 16.878 0 -1.85687 17.0948 0 -1.96228 17.3131 0 -2.06923 17.5331 0 -2.1777 17.7546 0 -2.2877 17.9777 0 -2.39922 18.2025 0 -2.51227 18.4288 0 -2.62685 18.6567 0 -2.7429