<?xml version="1.0"?> 
<VTKFile type="StructuredGrid" version="0.1"> 
<StructuredGrid WholeExtent="0 200 0 200 0 0"> 
<Piece Extent="0 200 0 200 0 0"> 
<PointData Scalars="Stress components">
<DataArray type="Float32" Name="sigma_xx" format="ascii" NumberOfComponents="1"> 
0.0757911 0.0743546 0.0729534 0.0715877 0.0702579 0.0689644 0.0677074 0.0664875 0.0653049 0.06416 0.0630531 0.0619847 0.0609552 0.0599648 0.0590141 0.0581034 0.057233 0.0564035 0.0556152 0.0548686 0.054164 0.0535019 0.0528828 0.0523071 0.0517751 0.0512875 0.0508446 0.0504469 0.0500949 0.0497891 0.0495299 0.0493178 0.0491534 0.0490372 0.0489696 0.0489513 0.0489826 0.0490642 0.0491966 0.0493804 0.0496161 0.0499043 0.0502456 0.0506405 0.0510897 0.0515937 0.0521533 0.0527689 0.0534412 0.0541709 0.0549586 0.055805 0.0567108 0.0576765 0.0587031 0.059791 0.0609411 0.062154 0.0634306 0.0647714 0.0661774 0.0676493 0.0691879 0.0707939 0.0724681 0.0742115 0.0760247 0.0779088 0.0798645 0.0818927 0.0839943 0.0861702 0.0884213 0.0907486 0.0931529 0.0956354 0.0981969 0.100839 0.103561 0.106366 0.109254 0.112226 0.115284 0.118428 0.121659 0.124979 0.128389 0.13189 0.135484 0.13917 0.142952 0.14683 0.150804 0.154878 0.159051 0.163326 0.167704 0.172185 0.176773 0.181467 0.18627 0.183762 0.18128 0.178824 0.176395 0.173993 0.171618 0.169271 0.166953 0.164662 0.162401 0.16017 0.157968 0.155796 0.153655 0.151546 0.149468 0.147422 0.145409 0.14343 0.141484 0.139572 0.137695 0.135853 0.134047 0.132278 0.130545 0.12885 0.127194 0.125576 0.123997 0.122459 0.120961 0.119505 0.118091 0.11672 0.115393 0.114109 0.112871 0.111679 0.110533 0.109435 0.108384 0.107383 0.106432 0.105532 0.104683 0.103887 0.103145 0.102457 0.101825 0.101249 0.100732 0.100272 0.0998731 0.0995347 0.0992584 0.0990454 0.0988969 0.0988141 0.0987984 0.098851 0.0989733 0.0991667 0.0994326 0.0997724 0.100188 0.10068 0.101251 0.101902 0.102634 0.103451 0.104352 0.105341 0.106419 0.107588 0.108849 0.110206 0.111659 0.113212 0.114866 0.116624 0.118487 0.120459 0.122542 0.124739 0.127052 0.129483 0.132036 0.134714 0.13752 0.140456 0.143526 0.146734 0.150082 0.153574 0.157214 0.161006 0.164954 0.169061 0.173332 0.077626 0.0761751 0.0747592 0.0733787 0.072034 0.0707253 0.069453 0.0682176 0.0670193 0.0658585 0.0647355 0.0636508 0.0626048 0.0615977 0.0606301 0.0597023 0.0588147 0.0579676 0.0571616 0.0563971 0.0556744 0.0549939 0.0543562 0.0537617 0.0532108 0.0527039 0.0522415 0.0518241 0.0514522 0.0511262 0.0508466 0.0506139 0.0504287 0.0502913 0.0502024 0.0501624 0.0501719 0.0502314 0.0503414 0.0505025 0.0507153 0.0509803 0.0512982 0.0516694 0.0520946 0.0525743 0.0531093 0.0537001 0.0543473 0.0550515 0.0558136 0.0566339 0.0575134 0.0584526 0.0594521 0.0605128 0.0616354 0.0628204 0.0640688 0.0653812 0.0667583 0.068201 0.06971 0.0712861 0.0729302 0.074643 0.0764253 0.0782781 0.0802022 0.0821983 0.0842676 0.0864107 0.0886287 0.0909224 0.0932929 0.0957411 0.0982679 0.100874 0.103561 0.10633 0.109182 0.112117 0.115138 0.118244 0.121437 0.124719 0.12809 0.131551 0.135105 0.138751 0.142492 0.146328 0.150261 0.154292 0.158423 0.162654 0.166988 0.171425 0.175967 0.180616 0.185373 0.182878 0.18041 0.177967 0.17555 0.173159 0.170796 0.168459 0.166151 0.16387 0.161618 0.159395 0.157201 0.155037 0.152903 0.1508 0.148728 0.146688 0.144679 0.142703 0.140761 0.138852 0.136977 0.135136 0.133331 0.131562 0.129829 0.128133 0.126474 0.124854 0.123272 0.12173 0.120227 0.118766 0.117345 0.115967 0.114631 0.113339 0.112092 0.110889 0.109732 0.108621 0.107558 0.106543 0.105577 0.104661 0.103796 0.102982 0.102221 0.101514 0.100861 0.100264 0.0997233 0.0992404 0.0988162 0.0984518 0.0981484 0.0979071 0.0977291 0.0976157 0.0975681 0.0975876 0.0976755 0.0978332 0.098062 0.0983635 0.0987389 0.09919 0.0997182 0.100325 0.101012 0.101782 0.102635 0.103573 0.104599 0.105714 0.106921 0.10822 0.109615 0.111107 0.112699 0.114392 0.11619 0.118094 0.120107 0.122231 0.124469 0.126824 0.129299 0.131895 0.134618 0.137468 0.14045 0.143567 0.146822 0.150218 0.15376 0.15745 0.161293 0.165293 0.169454 0.0794287 0.0779635 0.0765331 0.075138 0.0737784 0.0724547 0.0711672 0.0699163 0.0687024 0.0675258 0.0663869 0.065286 0.0642236 0.0632 0.0622156 0.0612708 0.060366 0.0595015 0.0586779 0.0578956 0.0571548 0.0564562 0.0558 0.0551868 0.054617 0.054091 0.0536093 0.0531723 0.0527806 0.0524346 0.0521347 0.0518815 0.0516755 0.0515171 0.051407 0.0513455 0.0513332 0.0513707 0.0514585 0.0515971 0.0517871 0.0520291 0.0523236 0.0526713 0.0530726 0.0535282 0.0540388 0.0546049 0.0552271 0.0559061 0.0566425 0.0574371 0.0582903 0.059203 0.0601758 0.0612095 0.0623046 0.0634619 0.0646822 0.0659663 0.0673147 0.0687284 0.070208 0.0717545 0.0733685 0.0750509 0.0768025 0.0786241 0.0805167 0.082481 0.084518 0.0866286 0.0888136 0.091074 0.0934107 0.0958247 0.098317 0.100889 0.10354 0.106273 0.109089 0.111988 0.114971 0.11804 0.121195 0.124438 0.12777 0.131193 0.134706 0.138313 0.142012 0.145807 0.149699 0.153688 0.157776 0.161964 0.166254 0.170647 0.175144 0.179747 0.184458 0.181978 0.179523 0.177093 0.174688 0.17231 0.169958 0.167632 0.165334 0.163063 0.160821 0.158607 0.156421 0.154265 0.152138 0.150042 0.147976 0.145941 0.143937 0.141966 0.140027 0.138121 0.136248 0.13441 0.132606 0.130837 0.129104 0.127407 0.125746 0.124124 0.122539 0.120993 0.119486 0.118019 0.116593 0.115208 0.113865 0.112564 0.111308 0.110095 0.108927 0.107805 0.106729 0.1057 0.10472 0.103789 0.102907 0.102076 0.101297 0.100571 0.0998978 0.0992794 0.0987166 0.0982103 0.0977617 0.0973718 0.0970418 0.0967727 0.0965658 0.0964222 0.0963433 0.0963301 0.0963842 0.0965067 0.0966991 0.0969627 0.097299 0.0977095 0.0981956 0.0987591 0.0994014 0.100124 0.100929 0.101818 0.102793 0.103855 0.105007 0.10625 0.107587 0.109019 0.110549 0.112179 0.113911 0.115748 0.117691 0.119744 0.121908 0.124188 0.126584 0.129101 0.13174 0.134506 0.1374 0.140427 0.143589 0.146891 0.150335 0.153925 0.157665 0.161558 0.16561 0.0811994 0.07972 0.0782752 0.0768655 0.0754911 0.0741525 0.0728499 0.0715837 0.0703543 0.069162 0.0680072 0.0668903 0.0658116 0.0647715 0.0637704 0.0628088 0.0618869 0.0610052 0.0601641 0.0593641 0.0586054 0.0578887 0.0572142 0.0565824 0.0559938 0.0554488 0.0549479 0.0544915 0.0540801 0.0537141 0.0533941 0.0531206 0.0528939 0.0527147 0.0525834 0.0525006 0.0524667 0.0524823 0.052548 0.0526642 0.0528316 0.0530507 0.053322 0.0536462 0.0540238 0.0544555 0.0549417 0.0554833 0.0560806 0.0567345 0.0574455 0.0582143 0.0590416 0.059928 0.0608742 0.0618809 0.0629487 0.0640785 0.0652709 0.0665267 0.0678467 0.0692315 0.0706819 0.0721988 0.0737829 0.0754351 0.0771561 0.0789468 0.0808081 0.0827407 0.0847457 0.0868238 0.088976 0.0912033 0.0935064 0.0958865 0.0983444 0.100881 0.103498 0.106195 0.108975 0.111837 0.114783 0.117815 0.120933 0.124138 0.127431 0.130814 0.134288 0.137855 0.141514 0.145268 0.149118 0.153065 0.15711 0.161255 0.165502 0.169851 0.174304 0.178862 0.183527 0.181061 0.178619 0.176202 0.173811 0.171444 0.169104 0.16679 0.164503 0.162242 0.160009 0.157804 0.155627 0.153479 0.15136 0.14927 0.147211 0.145182 0.143184 0.141217 0.139282 0.137379 0.135509 0.133673 0.13187 0.130102 0.128369 0.126672 0.12501 0.123386 0.121798 0.120249 0.118738 0.117266 0.115835 0.114443 0.113093 0.111785 0.110519 0.109296 0.108118 0.106985 0.105897 0.104855 0.103861 0.102915 0.102017 0.10117 0.100373 0.0996277 0.0989351 0.0982959 0.0977113 0.0971822 0.0967097 0.0962948 0.0959386 0.0956422 0.0954069 0.0952337 0.0951239 0.0950787 0.0950994 0.0951873 0.0953437 0.09557 0.0958677 0.0962382 0.0966829 0.0972035 0.0978014 0.0984783 0.0992359 0.100076 0.101 0.10201 0.103108 0.104296 0.105575 0.106948 0.108417 0.109984 0.111651 0.113421 0.115296 0.117278 0.119369 0.121574 0.123893 0.12633 0.128888 0.131569 0.134377 0.137315 0.140386 0.143593 0.14694 0.15043 0.154068 0.157856 0.161799 0.082938 0.0814445 0.0799854 0.0785612 0.0771722 0.0758188 0.0745012 0.0732198 0.071975 0.0707671 0.0695965 0.0684636 0.0673688 0.0663124 0.0652948 0.0643163 0.0633775 0.0624787 0.0616202 0.0608026 0.0600262 0.0592914 0.0585987 0.0579485 0.0573412 0.0567774 0.0562573 0.0557816 0.0553506 0.0549649 0.0546249 0.054331 0.0540839 0.0538839 0.0537317 0.0536276 0.0535722 0.0535661 0.0536098 0.0537038 0.0538487 0.054045 0.0542933 0.0545942 0.0549482 0.055356 0.0558182 0.0563353 0.0569079 0.0575368 0.0582226 0.0589658 0.0597672 0.0606274 0.0615471 0.062527 0.0635678 0.0646702 0.0658349 0.0670626 0.0683542 0.0697103 0.0711317 0.0726192 0.0741735 0.0757956 0.0774862 0.0792462 0.0810763 0.0829774 0.0849505 0.0869964 0.089116 0.0913102 0.09358 0.0959263 0.09835 0.100852 0.103434 0.106096 0.108839 0.111666 0.114575 0.11757 0.12065 0.123817 0.127072 0.130416 0.133851 0.137377 0.140996 0.14471 0.148518 0.152423 0.156427 0.160529 0.164732 0.169037 0.173446 0.177959 0.182579 0.180127 0.1777 0.175296 0.172917 0.170564 0.168235 0.165933 0.163656 0.161407 0.159184 0.156988 0.15482 0.15268 0.150569 0.148487 0.146434 0.144411 0.142418 0.140456 0.138526 0.136627 0.13476 0.132926 0.131125 0.129359 0.127626 0.125928 0.124266 0.12264 0.12105 0.119498 0.117983 0.116507 0.11507 0.113673 0.112316 0.111 0.109726 0.108494 0.107306 0.106161 0.105062 0.104007 0.103 0.102039 0.101126 0.100262 0.0994483 0.0986848 0.0979729 0.0973135 0.0967075 0.0961561 0.0956601 0.0952206 0.0948388 0.0945157 0.0942524 0.0940501 0.0939099 0.0938332 0.0938211 0.0938749 0.0939959 0.0941855 0.0944451 0.0947761 0.09518 0.0956583 0.0962124 0.0968441 0.0975549 0.0983465 0.0992207 0.100179 0.101224 0.102357 0.103579 0.104894 0.106302 0.107807 0.10941 0.111114 0.112921 0.114833 0.116852 0.118982 0.121225 0.123583 0.12606 0.128658 0.13138 0.13423 0.13721 0.140323 0.143574 0.146966 0.150502 0.154186 0.158022 0.0846446 0.083137 0.0816638 0.0802252 0.0788217 0.0774535 0.076121 0.0748245 0.0735644 0.0723411 0.0711548 0.0700061 0.0688952 0.0678225 0.0667885 0.0657934 0.0648378 0.0639219 0.0630462 0.0622111 0.061417 0.0606643 0.0599535 0.059285 0.0586592 0.0580766 0.0575376 0.0570427 0.0565923 0.0561869 0.055827 0.055513 0.0552455 0.0550249 0.0548518 0.0547266 0.0546499 0.0546222 0.054644 0.0547159 0.0548384 0.0550121 0.0552375 0.0555152 0.0558458 0.0562299 0.056668 0.0571609 0.057709 0.058313 0.0589737 0.0596915 0.0604671 0.0613013 0.0621947 0.063148 0.0641618 0.0652369 0.0663741 0.0675739 0.0688372 0.0701648 0.0715573 0.0730155 0.0745404 0.0761325 0.0777929 0.0795222 0.0813213 0.0831912 0.0851326 0.0871464 0.0892335 0.0913949 0.0936315 0.0959441 0.0983339 0.100802 0.103348 0.105975 0.108683 0.111473 0.114347 0.117304 0.120347 0.123476 0.126693 0.129999 0.133394 0.136881 0.14046 0.144132 0.1479 0.151764 0.155725 0.159784 0.163944 0.168206 0.17257 0.177039 0.181614 0.179177 0.176763 0.174374 0.172008 0.169667 0.167351 0.165061 0.162796 0.160557 0.158344 0.156158 0.153999 0.151868 0.149765 0.14769 0.145644 0.143628 0.141641 0.139684 0.137758 0.135864 0.134 0.132169 0.130371 0.128605 0.126874 0.125176 0.123513 0.121886 0.120295 0.118739 0.117222 0.115741 0.114299 0.112896 0.111533 0.11021 0.108928 0.107687 0.106489 0.105335 0.104224 0.103157 0.102136 0.101162 0.100234 0.0993542 0.0985233 0.097742 0.0970113 0.0963321 0.0957053 0.0951319 0.094613 0.0941495 0.0937425 0.0933931 0.0931023 0.0928714 0.0927014 0.0925936 0.0925492 0.0925695 0.0926557 0.0928092 0.0930313 0.0933234 0.093687 0.0941235 0.0946345 0.0952214 0.095886 0.0966299 0.0974547 0.0983623 0.0993543 0.100433 0.101599 0.102856 0.104205 0.105648 0.107188 0.108827 0.110566 0.112408 0.114356 0.116413 0.11858 0.12086 0.123257 0.125772 0.12841 0.131172 0.134062 0.137083 0.140239 0.143533 0.146968 0.150549 0.154279 0.086319 0.0847975 0.0833102 0.0818574 0.0804394 0.0790566 0.0777093 0.0763978 0.0751226 0.0738839 0.0726821 0.0715176 0.0703908 0.069302 0.0682516 0.0672401 0.0662677 0.0653348 0.064442 0.0635896 0.0627779 0.0620075 0.0612787 0.060592 0.0599478 0.0593466 0.0587887 0.0582747 0.057805 0.0573801 0.0570004 0.0566664 0.0563786 0.0561376 0.0559437 0.0557976 0.0556997 0.0556505 0.0556506 0.0557005 0.0558008 0.0559519 0.0561546 0.0564093 0.0567166 0.0570771 0.0574914 0.0579601 0.0584838 0.0590632 0.0596988 0.0603913 0.0611414 0.0619497 0.0628169 0.0637437 0.0647308 0.0657788 0.0668885 0.0680606 0.0692958 0.070595 0.0719587 0.073388 0.0748834 0.0764458 0.078076 0.0797749 0.0815433 0.0833819 0.0852918 0.0872737 0.0893286 0.0914573 0.0936608 0.09594 0.098296 0.10073 0.103242 0.105834 0.108506 0.11126 0.114097 0.117018 0.120023 0.123115 0.126294 0.129561 0.132918 0.136365 0.139904 0.143536 0.147263 0.151085 0.155004 0.159022 0.163139 0.167357 0.171678 0.176102 0.180632 0.17821 0.175811 0.173435 0.171083 0.168755 0.166452 0.164173 0.16192 0.159692 0.15749 0.155314 0.153165 0.151043 0.148948 0.146881 0.144843 0.142833 0.140852 0.138901 0.13698 0.13509 0.13323 0.131402 0.129606 0.127843 0.126112 0.124415 0.122752 0.121124 0.119531 0.117974 0.116453 0.114969 0.113523 0.112114 0.110745 0.109415 0.108126 0.106877 0.105669 0.104505 0.103383 0.102304 0.101271 0.100283 0.0993404 0.0984453 0.097598 0.0967993 0.0960502 0.0953517 0.0947045 0.0941097 0.0935683 0.0930812 0.0926496 0.0922744 0.0919567 0.0916976 0.0914984 0.0913601 0.0912839 0.0912712 0.0913231 0.0914409 0.0916261 0.0918799 0.0922037 0.0925991 0.0930675 0.0936104 0.0942294 0.0949261 0.0957022 0.0965594 0.0974995 0.0985241 0.0996354 0.100835 0.102125 0.103508 0.104985 0.106558 0.108231 0.110005 0.111883 0.113866 0.115958 0.118162 0.120479 0.122912 0.125466 0.128141 0.130942 0.133872 0.136934 0.140131 0.143466 0.146944 0.150568 0.0879614 0.0864261 0.0849248 0.0834579 0.0820255 0.0806282 0.0792662 0.0779399 0.0766495 0.0753956 0.0741784 0.0729983 0.0718556 0.0707508 0.0696842 0.0686562 0.0676672 0.0667176 0.0658077 0.0649381 0.064109 0.0633209 0.0625743 0.0618695 0.061207 0.0605873 0.0600107 0.0594777 0.0589888 0.0585444 0.0581451 0.0577913 0.0574834 0.057222 0.0570075 0.0568405 0.0567215 0.056651 0.0566295 0.0566576 0.0567358 0.0568646 0.0570446 0.0572764 0.0575605 0.0578976 0.0582882 0.0587329 0.0592323 0.0597871 0.0603979 0.0610653 0.06179 0.0625726 0.0634138 0.0643142 0.0652746 0.0662957 0.0673781 0.0685226 0.06973 0.0710009 0.0723361 0.0737364 0.0752026 0.0767354 0.0783357 0.0800043 0.081742 0.0835497 0.0854282 0.0873784 0.0894011 0.0914974 0.093668 0.095914 0.0982363 0.100636 0.103114 0.105671 0.108308 0.111026 0.113827 0.116711 0.11968 0.122734 0.125875 0.129104 0.132422 0.13583 0.139329 0.142921 0.146607 0.150388 0.154266 0.158241 0.162316 0.166491 0.170767 0.175148 0.179632 0.177226 0.174841 0.17248 0.170142 0.167828 0.165537 0.163271 0.161029 0.158813 0.156622 0.154456 0.152317 0.150204 0.148118 0.14606 0.144029 0.142026 0.140052 0.138107 0.136191 0.134305 0.13245 0.130625 0.128832 0.127071 0.125342 0.123646 0.121983 0.120354 0.11876 0.117201 0.115678 0.11419 0.11274 0.111327 0.109952 0.108616 0.107319 0.106062 0.104846 0.103671 0.102539 0.101449 0.100403 0.0994019 0.0984457 0.0975356 0.0966723 0.0958567 0.0950898 0.0943723 0.0937052 0.0930895 0.0925261 0.0920159 0.0915601 0.0911596 0.0908155 0.0905288 0.0903008 0.0901325 0.0900251 0.0899799 0.0899981 0.0900808 0.0902296 0.0904456 0.0907304 0.0910852 0.0915116 0.092011 0.092585 0.0932352 0.0939632 0.0947707 0.0956594 0.096631 0.0976875 0.0988307 0.100062 0.101385 0.1028 0.10431 0.105917 0.107623 0.10943 0.111342 0.11336 0.115487 0.117725 0.120078 0.122548 0.125138 0.127851 0.13069 0.133658 0.136759 0.139996 0.143372 0.146892 0.0895717 0.0880227 0.0865075 0.0850265 0.08358 0.0821682 0.0807916 0.0794505 0.0781453 0.0768762 0.0756436 0.074448 0.0732897 0.0721689 0.0710862 0.0700419 0.0690364 0.0680701 0.0671434 0.0662566 0.0654102 0.0646046 0.0638402 0.0631175 0.0624368 0.0617987 0.0612034 0.0606516 0.0601437 0.05968 0.0592612 0.0588876 0.0585597 0.0582781 0.0580432 0.0578555 0.0577155 0.0576238 0.0575808 0.0575872 0.0576434 0.05775 0.0579075 0.0581165 0.0583776 0.0586914 0.0590584 0.0594793 0.0599546 0.060485 0.0610711 0.0617135 0.0624129 0.0631699 0.0639852 0.0648595 0.0657934 0.0667877 0.067843 0.0689601 0.0701397 0.0713825 0.0726893 0.0740609 0.075498 0.0770014 0.0785719 0.0802104 0.0819176 0.0836945 0.0855417 0.0874604 0.0894512 0.0915151 0.0936531 0.095866 0.0981548 0.10052 0.102964 0.105486 0.108088 0.110771 0.113536 0.116384 0.119316 0.122333 0.125436 0.128627 0.131906 0.135275 0.138735 0.142287 0.145933 0.149673 0.153509 0.157442 0.161474 0.165606 0.16984 0.174176 0.178616 0.176225 0.173856 0.171509 0.169185 0.166884 0.164607 0.162354 0.160124 0.157919 0.155739 0.153585 0.151455 0.149352 0.147275 0.145225 0.143202 0.141207 0.13924 0.137301 0.135391 0.13351 0.131659 0.129838 0.128048 0.12629 0.124563 0.122868 0.121206 0.119577 0.117982 0.116421 0.114895 0.113405 0.111951 0.110533 0.109153 0.107811 0.106507 0.105243 0.104018 0.102834 0.101692 0.100591 0.0995338 0.0985196 0.0975498 0.0966251 0.0957463 0.0949143 0.0941299 0.093394 0.0927075 0.0920713 0.0914863 0.0909536 0.090474 0.0900487 0.0896787 0.0893649 0.0891086 0.0889109 0.0887728 0.0886957 0.0886806 0.0887289 0.0888418 0.0890207 0.0892668 0.0895817 0.0899666 0.0904232 0.0909528 0.0915571 0.0922376 0.092996 0.093834 0.0947533 0.0957557 0.0968431 0.0980172 0.0992802 0.100634 0.102081 0.103622 0.105261 0.107 0.10884 0.110785 0.112836 0.114997 0.117269 0.119657 0.122162 0.124787 0.127536 0.130412 0.133418 0.136557 0.139833 0.143249 0.0911499 0.0895873 0.0880584 0.0865634 0.0851028 0.0836767 0.0822856 0.0809299 0.0796097 0.0783256 0.0770779 0.0758668 0.0746929 0.0735564 0.0724577 0.0713972 0.0703753 0.0693924 0.0684488 0.0675451 0.0666815 0.0658585 0.0650765 0.0643359 0.0636372 0.0629808 0.0623671 0.0617965 0.0612696 0.0607868 0.0603486 0.0599554 0.0596076 0.0593059 0.0590506 0.0588424 0.0586816 0.0585688 0.0585045 0.0584893 0.0585236 0.0586081 0.0587433 0.0589297 0.059168 0.0594586 0.0598022 0.0601993 0.0606507 0.0611568 0.0617183 0.0623359 0.0630102 0.0637417 0.0645313 0.0653796 0.0662871 0.0672548 0.0682831 0.0693729 0.0705249 0.0717398 0.0730184 0.0743614 0.0757695 0.0772437 0.0787846 0.0803931 0.0820701 0.0838162 0.0856325 0.0875197 0.0894788 0.0915106 0.0936161 0.0957961 0.0980516 0.100384 0.102793 0.105281 0.107848 0.110496 0.113225 0.116037 0.118932 0.121912 0.124978 0.12813 0.131371 0.134701 0.138122 0.141634 0.14524 0.148939 0.152734 0.156626 0.160615 0.164705 0.168895 0.173187 0.177583 0.175207 0.172854 0.170522 0.168212 0.165926 0.163662 0.161421 0.159204 0.157011 0.154843 0.152699 0.15058 0.148487 0.14642 0.144378 0.142364 0.140376 0.138416 0.136483 0.134579 0.132704 0.130858 0.129041 0.127255 0.125499 0.123774 0.122081 0.12042 0.118791 0.117196 0.115634 0.114106 0.112613 0.111156 0.109734 0.108349 0.107001 0.105691 0.10442 0.103187 0.101994 0.100842 0.0997312 0.0986621 0.0976357 0.0966526 0.0957138 0.09482 0.0939719 0.0931706 0.0924167 0.0917112 0.091055 0.090449 0.0898941 0.0893914 0.0889418 0.0885463 0.088206 0.087922 0.0876953 0.087527 0.0874185 0.0873707 0.0873851 0.0874627 0.0876049 0.0878131 0.0880885 0.0884327 0.0888469 0.0893328 0.0898918 0.0905255 0.0912354 0.0920234 0.092891 0.0938399 0.0948721 0.0959894 0.0971937 0.0984869 0.0998711 0.101348 0.102921 0.104591 0.106361 0.108233 0.110209 0.112293 0.114486 0.116792 0.119213 0.121752 0.124412 0.127196 0.130108 0.13315 0.136326 0.139639 0.092696 0.09112 0.0895774 0.0880686 0.0865939 0.0851536 0.0837482 0.0823779 0.081043 0.079744 0.0784811 0.0772548 0.0760653 0.0749131 0.0737985 0.072722 0.0716838 0.0706844 0.0697242 0.0688036 0.0679229 0.0670826 0.0662831 0.0655248 0.0648082 0.0641336 0.0635015 0.0629124 0.0623667 0.0618648 0.0614073 0.0609946 0.0606271 0.0603054 0.06003 0.0598012 0.0596197 0.059486 0.0594005 0.0593639 0.0593765 0.0594391 0.059552 0.059716 0.0599315 0.0601991 0.0605194 0.060893 0.0613205 0.0618025 0.0623396 0.0629325 0.0635817 0.064288 0.065052 0.0658744 0.0667558 0.0676969 0.0686985 0.0697612 0.0708857 0.0720728 0.0733233 0.0746379 0.0760173 0.0774623 0.0789738 0.0805526 0.0821994 0.083915 0.0857005 0.0875565 0.089484 0.0914838 0.0935569 0.0957042 0.0979266 0.100225 0.102601 0.105054 0.107587 0.110199 0.112893 0.115668 0.118527 0.121471 0.124499 0.127614 0.130817 0.134108 0.13749 0.140963 0.144528 0.148187 0.151941 0.155791 0.159739 0.163785 0.167932 0.172181 0.176533 0.174173 0.171835 0.169518 0.167224 0.164951 0.162701 0.160474 0.15827 0.156089 0.153932 0.1518 0.149692 0.147609 0.145551 0.143519 0.141513 0.139533 0.13758 0.135655 0.133757 0.131887 0.130046 0.128234 0.126452 0.124699 0.122977 0.121285 0.119625 0.117997 0.116402 0.114839 0.11331 0.111815 0.110355 0.108929 0.10754 0.106187 0.104871 0.103592 0.102352 0.101151 0.0999896 0.0988685 0.0977884 0.0967501 0.0957543 0.0948018 0.0938933 0.0930297 0.0922118 0.0914404 0.0907164 0.0900407 0.0894141 0.0888376 0.0883122 0.0878388 0.0874184 0.087052 0.0867407 0.0864856 0.0862878 0.0861483 0.0860685 0.0860494 0.0860923 0.0861985 0.0863692 0.0866059 0.0869098 0.0872823 0.087725 0.0882393 0.0888268 0.089489 0.0902275 0.091044 0.0919402 0.0929179 0.093979 0.0951252 0.0963586 0.097681 0.0990946 0.100602 0.102204 0.103904 0.105704 0.107607 0.109614 0.111729 0.113954 0.116292 0.118745 0.121317 0.12401 0.126828 0.129774 0.132851 0.136063 0.0942101 0.0926206 0.0910645 0.0895419 0.0880533 0.086599 0.0851793 0.0837945 0.082445 0.0811312 0.0798533 0.0786118 0.0774069 0.0762392 0.0751088 0.0740163 0.072962 0.0719463 0.0709695 0.0700321 0.0691344 0.068277 0.0674601 0.0666842 0.0659497 0.0652571 0.0646068 0.0639992 0.0634348 0.0629141 0.0624374 0.0620053 0.0616182 0.0612767 0.0609811 0.0607321 0.06053 0.0603755 0.0602689 0.060211 0.0602021 0.0602428 0.0603337 0.0604753 0.0606681 0.0609129 0.06121 0.0615602 0.061964 0.062422 0.0629349 0.0635032 0.0641277 0.0648088 0.0655474 0.066344 0.0671994 0.0681142 0.0690891 0.0701248 0.071222 0.0723816 0.0736041 0.0748904 0.0762412 0.0776574 0.0791396 0.0806887 0.0823055 0.0839909 0.0857456 0.0875706 0.0894666 0.0914347 0.0934756 0.0955904 0.0977798 0.100045 0.102387 0.104806 0.107304 0.109882 0.11254 0.11528 0.118103 0.121009 0.124001 0.127078 0.130243 0.133496 0.136839 0.140272 0.143797 0.147416 0.151129 0.154938 0.158844 0.162848 0.166952 0.171158 0.175466 0.173123 0.1708 0.168499 0.166219 0.163961 0.161725 0.159511 0.15732 0.155152 0.153007 0.150886 0.148789 0.146717 0.144669 0.142646 0.140649 0.138678 0.136733 0.134815 0.132924 0.13106 0.129224 0.127417 0.125639 0.12389 0.12217 0.120481 0.118823 0.117196 0.1156 0.114037 0.112507 0.11101 0.109547 0.108119 0.106725 0.105367 0.104046 0.102761 0.101514 0.100304 0.0991341 0.0980032 0.0969126 0.0958628 0.0948547 0.0938889 0.0929663 0.0920876 0.0912536 0.0904652 0.0897232 0.0890284 0.0883817 0.0877841 0.0872364 0.0867397 0.0862949 0.0859029 0.0855649 0.0852819 0.085055 0.0848852 0.0847738 0.0847218 0.0847306 0.0848013 0.0849352 0.0851336 0.0853978 0.0857293 0.0861295 0.0865997 0.0871416 0.0877565 0.0884463 0.0892124 0.0900565 0.0909804 0.0919859 0.0930748 0.094249 0.0955104 0.096861 0.098303 0.0998384 0.10147 0.103199 0.105028 0.10696 0.108997 0.111142 0.113397 0.115766 0.11825 0.120854 0.12358 0.12643 0.12941 0.132521 0.095692 0.0940893 0.0925197 0.0909835 0.0894811 0.0880128 0.0865789 0.0851798 0.0838158 0.0824872 0.0811945 0.0799379 0.0787178 0.0775345 0.0763886 0.0752802 0.0742098 0.0731779 0.0721846 0.0712306 0.0703161 0.0694415 0.0686074 0.067814 0.0670619 0.0663514 0.0656829 0.065057 0.064474 0.0639345 0.0634388 0.0629874 0.0625809 0.0622196 0.0619041 0.0616349 0.0614124 0.0612372 0.0611097 0.0610306 0.0610002 0.0610193 0.0610882 0.0612076 0.061378 0.0616 0.0618741 0.062201 0.0625813 0.0630155 0.0635042 0.0640482 0.0646479 0.0653041 0.0660174 0.0667884 0.0676179 0.0685065 0.0694549 0.0704638 0.0715339 0.072666 0.0738608 0.075119 0.0764414 0.0778287 0.0792818 0.0808015 0.0823885 0.0840437 0.0857679 0.087562 0.0894268 0.0913633 0.0933722 0.0954546 0.0976113 0.0998433 0.102152 0.104537 0.107001 0.109543 0.112167 0.114871 0.117658 0.120528 0.123482 0.126522 0.129649 0.132864 0.136168 0.139562 0.143048 0.146627 0.150299 0.154067 0.157931 0.161893 0.165955 0.170117 0.174382 0.172055 0.169749 0.167463 0.165199 0.162955 0.160734 0.158534 0.156356 0.154201 0.152068 0.149959 0.147874 0.145812 0.143774 0.141761 0.139773 0.137811 0.135874 0.133963 0.132079 0.130222 0.128392 0.12659 0.124816 0.123071 0.121355 0.119668 0.118012 0.116386 0.114792 0.113228 0.111697 0.110199 0.108734 0.107302 0.105905 0.104543 0.103216 0.101925 0.100671 0.0994544 0.0982756 0.0971355 0.0960347 0.0949739 0.0939539 0.0929753 0.092039 0.0911456 0.090296 0.089491 0.0887314 0.088018 0.0873517 0.0867334 0.0861641 0.0856445 0.0851758 0.0847588 0.0843946 0.0840842 0.0838287 0.0836291 0.0834867 0.0834024 0.0833776 0.0834133 0.083511 0.0836717 0.0838969 0.0841879 0.0845461 0.0849729 0.0854698 0.0860382 0.0866798 0.0873962 0.0881889 0.0890597 0.0900103 0.0910425 0.0921582 0.0933593 0.0946477 0.0960255 0.0974947 0.0990576 0.100716 0.102473 0.10433 0.106291 0.108356 0.11053 0.112815 0.115213 0.117728 0.120362 0.123118 0.126 0.129012 0.0971419 0.095526 0.093943 0.0923933 0.0908772 0.089395 0.0879471 0.0865338 0.0851553 0.0838122 0.0825046 0.0812331 0.0799978 0.0787992 0.0776377 0.0765136 0.0754273 0.0743792 0.0733697 0.0723991 0.0714678 0.0705764 0.0697251 0.0689143 0.0681446 0.0674163 0.0667299 0.0660857 0.0654843 0.0649261 0.0644115 0.063941 0.0635151 0.0631343 0.062799 0.0625096 0.0622669 0.0620711 0.0619228 0.0618226 0.061771 0.0617685 0.0618156 0.061913 0.062061 0.0622604 0.0625117 0.0628155 0.0631723 0.0635828 0.0640476 0.0645673 0.0651425 0.0657738 0.066462 0.0672076 0.0680113 0.0688739 0.0697959 0.0707782 0.0718214 0.0729261 0.0740933 0.0753236 0.0766177 0.0779764 0.0794006 0.0808909 0.0824483 0.0840735 0.0857674 0.0875308 0.0893645 0.0912695 0.0932467 0.0952968 0.097421 0.09962 0.101895 0.104247 0.106676 0.109184 0.111772 0.114441 0.117192 0.120026 0.122944 0.125947 0.129036 0.132213 0.135479 0.138834 0.14228 0.145819 0.149451 0.153178 0.157001 0.160921 0.16494 0.169059 0.17328 0.170971 0.168681 0.166411 0.164162 0.161934 0.159727 0.157541 0.155377 0.153235 0.151115 0.149018 0.146944 0.144894 0.142867 0.140864 0.138885 0.136932 0.135003 0.1331 0.131223 0.129373 0.127549 0.125753 0.123984 0.122243 0.12053 0.118847 0.117193 0.115569 0.113975 0.112412 0.110881 0.109381 0.107914 0.10648 0.10508 0.103713 0.102382 0.101085 0.0998249 0.098601 0.0974142 0.0962652 0.0951547 0.0940834 0.0930519 0.0920609 0.0911113 0.0902038 0.089339 0.0885179 0.0877411 0.0870096 0.0863242 0.0856858 0.0850951 0.0845533 0.0840611 0.0836196 0.0832297 0.0828925 0.0826089 0.0823801 0.0822071 0.0820911 0.0820332 0.0820347 0.0820966 0.0822203 0.082407 0.0826581 0.082975 0.0833589 0.0838114 0.084334 0.0849281 0.0855953 0.0863373 0.0871556 0.088052 0.0890283 0.0900862 0.0912276 0.0924545 0.0937689 0.0951727 0.0966681 0.0982572 0.0999424 0.101726 0.10361 0.105597 0.10769 0.109892 0.112205 0.114631 0.117174 0.119838 0.122624 0.125536 0.0985597 0.0969307 0.0953345 0.0937714 0.0922417 0.0907457 0.0892838 0.0878564 0.0864636 0.085106 0.0837838 0.0824973 0.081247 0.0800332 0.0788563 0.0777166 0.0766145 0.0755503 0.0745246 0.0735376 0.0725897 0.0716814 0.0708131 0.0699851 0.069198 0.068452 0.0677477 0.0670854 0.0664657 0.0658889 0.0653556 0.0648661 0.064421 0.0640207 0.0636656 0.0633564 0.0630934 0.0628772 0.0627083 0.0625872 0.0625145 0.0624905 0.062516 0.0625914 0.0627173 0.0628942 0.0631228 0.0634035 0.0637371 0.0641241 0.064565 0.0650606 0.0656113 0.066218 0.0668812 0.0676015 0.0683797 0.0692164 0.0701122 0.071068 0.0720843 0.073162 0.0743017 0.0755042 0.0767702 0.0781005 0.0794958 0.0809571 0.082485 0.0840804 0.0857441 0.0874769 0.0892798 0.0911535 0.093099 0.0951172 0.0972089 0.0993751 0.101617 0.103935 0.10633 0.108804 0.111358 0.113991 0.116707 0.119504 0.122386 0.125352 0.128404 0.131543 0.13477 0.138087 0.141494 0.144992 0.148584 0.15227 0.156052 0.159931 0.163908 0.167985 0.172162 0.16987 0.167597 0.165343 0.16311 0.160897 0.158705 0.156533 0.154383 0.152255 0.150148 0.148063 0.146001 0.143962 0.141946 0.139954 0.137985 0.136041 0.134121 0.132226 0.130357 0.128513 0.126696 0.124905 0.123141 0.121405 0.119697 0.118017 0.116365 0.114743 0.113151 0.111589 0.110057 0.108557 0.107089 0.105652 0.104249 0.102879 0.101543 0.100241 0.098975 0.0977443 0.0965499 0.0953924 0.0942727 0.0931912 0.0921486 0.0911458 0.0901833 0.089262 0.0883825 0.0875457 0.0867523 0.0860032 0.0852991 0.084641 0.0840296 0.083466 0.0829509 0.0824853 0.0820703 0.0817067 0.0813956 0.0811381 0.0809352 0.080788 0.0806976 0.0806652 0.080692 0.0807792 0.0809281 0.0811399 0.081416 0.0817578 0.0821666 0.0826438 0.0831911 0.0838098 0.0845017 0.0852682 0.0861111 0.0870321 0.088033 0.0891155 0.0902816 0.0915332 0.0928723 0.094301 0.0958214 0.0974356 0.099146 0.100955 0.102865 0.104878 0.106997 0.109225 0.111564 0.114018 0.116589 0.11928 0.122094 0.0999455 0.0983035 0.0966941 0.0951177 0.0935745 0.0920649 0.0905891 0.0891476 0.0877407 0.0863687 0.0850319 0.0837307 0.0824655 0.0812366 0.0800443 0.0788891 0.0777713 0.0766912 0.0756494 0.0746461 0.0736817 0.0727567 0.0718715 0.0710264 0.0702219 0.0694584 0.0687363 0.0680561 0.0674182 0.066823 0.066271 0.0657626 0.0652984 0.0648788 0.0645042 0.0641751 0.0638921 0.0636556 0.0634662 0.0633243 0.0632305 0.0631853 0.0631892 0.0632428 0.0633467 0.0635013 0.0637073 0.0639652 0.0642756 0.0646392 0.0650564 0.065528 0.0660546 0.0666367 0.067275 0.0679703 0.068723 0.0695339 0.0704038 0.0713332 0.0723229 0.0733736 0.0744859 0.0756608 0.0768989 0.0782009 0.0795676 0.0809999 0.0824985 0.0840642 0.0856979 0.0874004 0.0891725 0.0910152 0.0929292 0.0949155 0.0969751 0.0991087 0.101317 0.103602 0.105964 0.108404 0.110922 0.113521 0.116201 0.118963 0.121808 0.124737 0.127752 0.130853 0.134042 0.13732 0.140688 0.144148 0.1477 0.151345 0.155086 0.158923 0.162858 0.166892 0.171027 0.168752 0.166496 0.164259 0.162042 0.159845 0.157667 0.155511 0.153375 0.15126 0.149166 0.147095 0.145045 0.143017 0.141012 0.139031 0.137072 0.135137 0.133227 0.131341 0.129479 0.127643 0.125832 0.124048 0.12229 0.120558 0.118854 0.117178 0.115529 0.11391 0.112319 0.110758 0.109227 0.107726 0.106257 0.104819 0.103413 0.10204 0