<?xml version="1.0"?> 
<VTKFile type="StructuredGrid" version="0.1"> 
<StructuredGrid WholeExtent="0 200 0 200 0 0"> 
<Piece Extent="0 200 0 200 0 0"> 
<PointData Vectors="Displ">
<DataArray type="Float32" Name="Displ" format="ascii" NumberOfComponents="3"> 
0 0 0 0 0 0 0 0 0 0 0 0 0 0 0 0 0 0 0 0 0 0 0 0 0 0 0 0 0 0 0 0 0 0 0 0 0 0 0 0 0 0 0 0 0 0 0 0 0 0 0 0 0 0 0 0 0 0 0 0 0 0 0 0 0 0 0 0 0 0 0 0 0 0 0 0 0 0 0 0 0 0 0 0 0 0 0 0 0 0 0 0 0 0 0 0 0 0 0 0 0 0 0 0 0 0 0 0 0 0 0 0 0 0 0 0 0 0 0 0 0 0 0 0 0 0 0 0 0 0 0 0 0 0 0 0 0 0 0 0 0 0 0 0 0 0 0 0 0 0 0 0 0 0 0 0 0 0 0 0 0 0 0 0 0 0 0 0 0 0 0 0 0 0 0 0 0 0 0 0 0 0 0 0 0 0 0 0 0 0 0 0 0 0 0 0 0 0 0 0 0 0 0 0 0 0 0 0 0 0 0 0 0 0 0 0 0 0 0 0 0 0 0 0 0 0 0 0 0 0 0 0 0 0 0 0 0 0 0 0 0 0 0 0 0 0 0 0 0 0 0 0 0 0 0 0 0 0 0 0 0 0 0 0 0 0 0 0 0 0 0 0 0 0 0 0 0 0 0 0 0 0 0 0 0 0 0 0 0 0 0 0 0 0 0 0 0 0 0 0 0 0 0 0 0 0 0 0 0 0 0 0 0 0 0 0 0 0 0 0 0 0 0 0 0 0 0 0 0 0 0 0 0 0 0 0 0 0 0 0 0 0 0 0 0 0 0 0 0 0 0 0 0 0 0 0 0 0 0 0 0 0 0 0 0 0 0 0 0 0 0 0 0 0 0 0 0 0 0 0 0 0 0 0 0 0 0 0 0 0 0 0 0 0 0 0 0 0 0 0 0 0 0 0 0 0 0 0 0 0 0 0 0 0 0 0 0 0 0 0 0 0 0 0 0 0 0 0 0 0 0 0 0 0 0 0 0 0 0 0 0 0 0 0 0 0 0 0 0 0 0 0 0 0 0 0 0 0 0 0 0 0 0 0 0 0 0 0 0 0 0 0 0 0 0 0 0 0 0 0 0 0 0 0 0 0 0 0 0 0 0 0 0 0 0 0 0 0 0 0 0 0 0 0 0 0 0 0 0 0 0 0 0 0 0 0 0 0 0 0 0 0 0 0 0 0 0 0 0 0 0 0 0 0 0 0 0 0 0 0 0 0 0 0 0 0 0 0 0 0 0 0 0 0 0 0 0 0 0 0 0 0 0 0 0 0 0 0 0 0 0 0 0 0 0 0 0 0 0 0 0 0 0 0 0 0 0 0 0 0 0 0 0 0 0 0 0 0 0 0 0 0 0 0.00166541 0.00128839 0 0.00159929 0.00118879 0 0.0015358 0.00109409 0 0.00147493 0.00100431 0 0.00141669 0.000919441 0 0.00136108 0.000839481 0 0.0013081 0.000764433 0 0.00125775 0.000694295 0 0.00121003 0.000629069 0 0.00116493 0.000568754 0 0.00112246 0.00051335 0 0.00108262 0.000462858 0 0.00104541 0.000417277 0 0.00101082 0.000376607 0 0.000978863 0.000340848 0 0.000949534 0.00031 0 0.000922833 0.000284064 0 0.00089876 0.000263038 0 0.000877315 0.000246924 0 0.000858497 0.000235722 0 0.000842308 0.00022943 0 0.000827627 0.000225527 0 0.000813335 0.00022149 0 0.000799431 0.000217319 0 0.000785916 0.000213015 0 0.000772789 0.000208576 0 0.000760051 0.000204004 0 0.000747702 0.000199297 0 0.000735741 0.000194457 0 0.000724169 0.000189482 0 0.000712985 0.000184374 0 0.00070219 0.000179132 0 0.000691784 0.000173756 0 0.000681766 0.000168246 0 0.000672137 0.000162602 0 0.000662896 0.000156824 0 0.000654044 0.000150912 0 0.000645581 0.000144866 0 0.000637506 0.000138687 0 0.00062982 0.000132373 0 0.000622522 0.000125926 0 0.000615493 0.000119522 0 0.000608613 0.000113339 0 0.000601881 0.000107377 0 0.000595297 0.000101635 0 0.000588862 9.61152e-05 0 0.000582575 9.08159e-05 0 0.000576437 8.57376e-05 0 0.000570447 8.08802e-05 0 0.000564606 7.62438e-05 0 0.000558913 7.18283e-05 0 0.000553369 6.76337e-05 0 0.000547973 6.36601e-05 0 0.000542725 5.99074e-05 0 0.000537627 5.63757e-05 0 0.000532676 5.3065e-05 0 0.000527874 4.99751e-05 0 0.00052322 4.71062e-05 0 0.000518715 4.44583e-05 0 0.000514359 4.20313e-05 0 0.00051015 3.98252e-05 0 0.000506048 3.77157e-05 0 0.000502009 3.55782e-05 0 0.000498033 3.34129e-05 0 0.00049412 3.12196e-05 0 0.000490271 2.89984e-05 0 0.000486485 2.67494e-05 0 0.000482762 2.44724e-05 0 0.000479102 2.21675e-05 0 0.000475506 1.98347e-05 0 0.000471973 1.74739e-05 0 0.000468502 1.50853e-05 0 0.000465096 1.26688e-05 0 0.000461752 1.02243e-05 0 0.000458472 7.75197e-06 0 0.000455255 5.25171e-06 0 0.000452101 2.72354e-06 0 0.00044901 1.67458e-07 0 0.000445983 -2.41653e-06 0 0.000443019 -5.02843e-06 0 0.000440118 -7.66824e-06 0 0.000437268 -1.0312e-05 0 0.000434458 -1.29356e-05 0 0.000431687 -1.55392e-05 0 0.000428955 -1.81227e-05 0 0.000426263 -2.06862e-05 0 0.00042361 -2.32296e-05 0 0.000420996 -2.57529e-05 0 0.000418422 -2.82561e-05 0 0.000415887 -3.07393e-05 0 0.000413392 -3.32024e-05 0 0.000410936 -3.56455e-05 0 0.000408519 -3.80685e-05 0 0.000406141 -4.04714e-05 0 0.000403803 -4.28542e-05 0 0.000401504 -4.5217e-05 0 0.000399245 -4.75597e-05 0 0.000397025 -4.98823e-05 0 0.000394844 -5.21849e-05 0 0.000392703 -5.44674e-05 0 0.000390601 -5.67299e-05 0 0.000388538 -5.89845e-05 0 0.000386515 -6.12434e-05 0 0.000384533 -6.35068e-05 0 0.00038259 -6.57746e-05 0 0.000380686 -6.80467e-05 0 0.000378823 -7.03232e-05 0 0.000376999 -7.26041e-05 0 0.000375216 -7.48895e-05 0 0.000373472 -7.71791e-05 0 0.000371767 -7.94732e-05 0 0.000370103 -8.17717e-05 0 0.000368479 -8.40745e-05 0 0.000366894 -8.63818e-05 0 0.000365349 -8.86934e-05 0 0.000363844 -9.10094e-05 0 0.000362379 -9.33298e-05 0 0.000360953 -9.56546e-05 0 0.000359567 -9.79838e-05 0 0.000358222 -0.000100317 0 0.000356916 -0.000102655 0 0.00035565 -0.000104993 0 0.000354424 -0.000107326 0 0.000353238 -0.000109654 0 0.000352093 -0.000111976 0 0.000350988 -0.000114294 0 0.000349923 -0.000116607 0 0.000348898 -0.000118915 0 0.000347914 -0.000121218 0 0.000346969 -0.000123517 0 0.000346065 -0.00012581 0 0.000345201 -0.000128098 0 0.000344378 -0.000130382 0 0.000343594 -0.00013266 0 0.000342851 -0.000134933 0 0.000342148 -0.000137202 0 0.000341485 -0.000139466 0 0.000340863 -0.000141724 0 0.00034028 -0.000143978 0 0.000339738 -0.000146227 0 0.000339236 -0.000148471 0 0.000338776 -0.000150704 0 0.000338359 -0.00015292 0 0.000337985 -0.00015512 0 0.000337654 -0.000157303 0 0.000337366 -0.000159469 0 0.000337121 -0.000161619 0 0.000336919 -0.000163752 0 0.000336761 -0.000165869 0 0.000336645 -0.000167968 0 0.000336573 -0.000170051 0 0.000336544 -0.000172118 0 0.000336558 -0.000174168 0 0.000336614 -0.000176201 0 0.000336714 -0.000178217 0 0.000336858 -0.000180217 0 0.000337044 -0.0001822 0 0.000337273 -0.000184166 0 0.000337546 -0.000186116 0 0.000337861 -0.000188049 0 0.00033822 -0.000189965 0 0.000338616 -0.00019185 0 0.000339045 -0.000193687 0 0.000339506 -0.000195478 0 0.00034 -0.000197221 0 0.000340527 -0.000198918 0 0.000341085 -0.000200567 0 0.000341677 -0.00020217 0 0.000342301 -0.000203725 0 0.000342957 -0.000205234 0 0.000343646 -0.000206695 0 0.000344367 -0.00020811 0 0.000345121 -0.000209477 0 0.000345907 -0.000210798 0 0.000346726 -0.000212071 0 0.000347577 -0.000213298 0 0.000348461 -0.000214477 0 0.000349377 -0.000215609 0 0.000350326 -0.000216695 0 0.000351307 -0.000217733 0 0.000352321 -0.000218724 0 0.000353332 -0.000219637 0 0.000354305 -0.00022044 0 0.000355241 -0.000221133 0 0.000356139 -0.000221715 0 0.000356999 -0.000222188 0 0.000357821 -0.00022255 0 0.000358606 -0.000222802 0 0.000359353 -0.000222945 0 0.000360062 -0.000222977 0 0.000360734 -0.000222899 0 0.000361368 -0.000222711 0 0.000361964 -0.000222413 0 0.000362523 -0.000222004 0 0.000363044 -0.000221486 0 0.000363527 -0.000220858 0 0.000363972 -0.000220119 0 0.00036438 -0.000219271 0 0.000364749 -0.000218312 0 0.000365082 -0.000217243 0 0.000365376 -0.000216065 0 0.00328555 0.0025296 0 0.00315777 0.00233671 0 0.00303503 0.00215328 0 0.00291733 0.00197932 0 0.00280468 0.00181481 0 0.00269706 0.00165977 0 0.00259448 0.0015142 0 0.00249694 0.00137809 0 0.00240445 0.00125144 0 0.00231699 0.00113425 0 0.00223457 0.00102653 0 0.0021572 0.000928265 0 0.00208486 0.000839468 0 0.00201756 0.000760134 0 0.00195531 0.000690263 0 0.00189809 0.000629856 0 0.00184592 0.000578911 0 0.00179878 0.00053743 0 0.00175669 0.000505411 0 0.00171963 0.000482856 0 0.00168762 0.000469764 0 0.00165851 0.00046129 0 0.00163017 0.000452587 0 0.00160259 0.000443656 0 0.00157578 0.000434498 0 0.00154974 0.000425111 0 0.00152446 0.000415496 0 0.00149995 0.000405653 0 0.00147621 0.000395582 0 0.00145324 0.000385283 0 0.00143103 0.000374756 0 0.00140959 0.000364 0 0.00138891 0.000353017 0 0.001369 0.000341806 0 0.00134986 0.000330366 0 0.00133149 0.000318698 0 0.00131388 0.000306803 0 0.00129704 0.000294679 0 0.00128097 0.000282327 0 0.00126566 0.000269747 0 0.00125112 0.000256939 0 0.00123711 0.000244232 0 0.0012234 0.000231955 0 0.00120997 0.000220108 0 0.00119684 0.000208691 0 0.001184 0.000197704 0 0.00117146 0.000187147 0 0.0011592 0.00017702 0 0.00114724 0.000167323 0 0.00113558 0.000158056 0 0.0011242 0.000149219 0 0.00111312 0.000140812 0 0.00110233 0.000132836 0 0.00109184 0.000125289 0 0.00108163 0.000118172 0 0.00107172 0.000111485 0 0.00106211 0.000105228 0 0.00105278 9.94015e-05 0 0.00104375 9.40048e-05 0 0.00103501 8.90381e-05 0 0.00102657 8.45014e-05 0 0.00101833 8.01549e-05 0 0.00101022 7.57587e-05 0 0.00100224 7.1313e-05 0 0.000994387 6.68176e-05 0 0.00098666 6.22726e-05 0 0.000979061 5.7678e-05 0 0.000971589 5.30338e-05 0 0.000964244 4.834e-05 0 0.000957027 4.35965e-05 0 0.000949937 3.88034e-05 0 0.000942974 3.39607e-05 0 0.000936138 2.90684e-05 0 0.00092943 2.41264e-05 0 0.000922849 1.91348e-05 0 0.000916395 1.40936e-05 0 0.000910068 9.00282e-06 0 0.000903869 3.86238e-06 0 0.000897797 -1.32767e-06 0 0.000891853 -6.56735e-06 0 0.000886035 -1.18567e-05 0 0.000880321 -1.71511e-05 0 0.000874686 -2.24062e-05 0 0.00086913 -2.7622e-05 0 0.000863652 -3.27984e-05 0 0.000858254 -3.79355e-05 0 0.000852934 -4.30333e-05 0 0.000847694 -4.80917e-05 0 0.000842532 -5.31109e-05 0 0.000837449 -5.80906e-05 0 0.000832446 -6.30311e-05 0 0.000827521 -6.79322e-05 0 0.000822675 -7.27939e-05 0 0.000817908 -7.76164e-05 0 0.00081322 -8.23995e-05 0 0.000808611 -8.71432e-05 0 0.00080408 -9.18477e-05 0 0.000799629 -9.65128e-05 0 0.000795257 -0.000101139 0 0.000790963 -0.000105725 0 0.000786749 -0.000110272 0 0.000782613 -0.000114804 0 0.000778557 -0.000119343 0 0.00077458 -0.000123891 0 0.000770682 -0.000128446 0 0.000766863 -0.00013301 0 0.000763123 -0.000137581 0 0.000759463 -0.000142161 0 0.000755881 -0.000146749 0 0.000752379 -0.000151345 0 0.000748956 -0.000155949 0 0.000745611 -0.000160561 0 0.000742347 -0.00016518 0 0.000739161 -0.000169808 0 0.000736054 -0.000174445 0 0.000733027 -0.000179089 0 0.000730078 -0.000183741 0 0.000727209 -0.000188401 0 0.000724419 -0.000193069 0 0.000721708 -0.000197745 0 0.000719076 -0.00020243 0 0.000716524 -0.000207113 0 0.000714051 -0.000211787 0 0.000711657 -0.000216452 0 0.000709343 -0.000221107 0 0.000707109 -0.000225752 0 0.000704954 -0.000230388 0 0.000702879 -0.000235015 0 0.000700883 -0.000239631 0 0.000698967 -0.000244239 0 0.00069713 -0.000248837 0 0.000695373 -0.000253425 0 0.000693695 -0.000258004 0 0.000692097 -0.000262573 0 0.000690579 -0.000267133 0 0.00068914 -0.000271683 0 0.00068778 -0.000276223 0 0.0006865 -0.000280755 0 0.0006853 -0.000285276 0 0.000684179 -0.000289788 0 0.000683138 -0.000294291 0 0.000682179 -0.000298772 0 0.000681305 -0.000303221 0 0.000680515 -0.000307638 0 0.000679811 -0.000312021 0 0.000679191 -0.000316373 0 0.000678656 -0.000320692 0 0.000678206 -0.000324978 0 0.000677841 -0.000329232 0 0.000677561 -0.000333453 0 0.000677366 -0.000337641 0 0.000677255 -0.000341798 0 0.00067723 -0.000345921 0 0.000677289 -0.000350012 0 0.000677433 -0.000354071 0 0.000677662 -0.000358097 0 0.000677976 -0.00036209 0 0.000678375 -0.000366051 0 0.000678859 -0.000369979 0 0.000679427 -0.000373875 0 0.00068008 -0.000377739 0 0.000680808 -0.00038154 0 0.0006816 -0.000385248 0 0.000682456 -0.000388865 0 0.000683376 -0.000392389 0 0.000684361 -0.000395821 0 0.000685409 -0.000399161 0 0.000686521 -0.000402409 0 0.000687698 -0.000405564 0 0.000688938 -0.000408628 0 0.000690243 -0.000411599 0 0.000691611 -0.000414478 0 0.000693044 -0.000417265 0 0.000694541 -0.000419959 0 0.000696102 -0.000422561 0 0.000697727 -0.000425071 0 0.000699416 -0.000427489 0 0.000701169 -0.000429815 0 0.000702986 -0.000432049 0 0.000704867 -0.00043419 0 0.000706813 -0.000436239 0 0.000708754 -0.000438134 0 0.000710623 -0.000439812 0 0.00071242 -0.000441274 0 0.000714145 -0.000442519 0 0.000715797 -0.000443547 0 0.000717378 -0.000444359 0 0.000718886 -0.000444955 0 0.000720322 -0.000445333 0 0.000721686 -0.000445496 0 0.000722977 -0.000445441 0 0.000724197 -0.000445171 0 0.000725344 -0.000444683 0 0.000726419 -0.000443979 0 0.000727422 -0.000443059 0 0.000728353 -0.000441922 0 0.000729212 -0.000440568 0 0.000729998 -0.000438998 0 0.000730712 -0.000437211 0 0.000731355 -0.000435208 0 0.000731924 -0.000432988 0 0.00486043 0.00372363 0 0.00467545 0.00344377 0 0.00449771 0.00317756 0 0.00432721 0.00292501 0 0.00416395 0.00268612 0 0.00400792 0.00246088 0 0.00385913 0.0022493 0 0.00371758 0.00205137 0 0.00358326 0.0018671 0 0.00345618 0.00169649 0 0.00333634 0.00153953 0 0.00322373 0.00139622 0 0.00311836 0.00126657 0 0.00302023 0.00115058 0 0.00292933 0.00104825 0 0.00284568 0.000959566 0 0.00276926 0.000884542 0 0.00270007 0.000823173 0 0.00263812 0.00077546 0 0.00258341 0.000741403 0 0.00253594 0.000721002 0 0.00249265 0.000707288 0 0.0024505 0.000693291 0 0.00240948 0.000679011 0 0.0023696 0.000664449 0 0.00233085 0.000649604 0 0.00229323 0.000634477 0 0.00225675 0.000619068 0 0.00222141 0.000603376 0 0.0021872 0.000587402 0 0.00215413 0.000571145 0 0.00212219 0.000554606 0 0.00209138 0.000537784 0 0.00206171 0.000520679 0 0.00203318 0.000503293 0 0.00200578 0.000485623 0 0.00197951 0.000467672 0 0.00195438 0.000449438 0 0.00193039 0.000430921 0 0.00190753 0.000412122 0 0.0018858 0.00039304 0 0.00186486 0.000374131 0 0.00184435 0.000355849 0 0.00182427 0.000338194 0 0.00180463 0.000321167 0 0.00178542 0.000304766 0 0.00176664 0.000288993 0 0.0017483 0.000273847 0 0.00173039 0.000259329 0 0.00171291 0.000245437 0 0.00169587 0.000232173 0 0.00167926 0.000219536 0 0.00166308 0.000207526 0 0.00164734 0.000196144 0 0.00163202 0.000185388 0 0.00161715 0.00017526 0 0.0016027 0.00016576 0 0.00158869 0.000156886 0 0.00157511 0.00014864 0 0.00156196 0.00014102 0 0.00154925 0.000134028 0 0.00153685 0.000127318 0 0.00152464 0.000120542 0 0.00151262 0.0001137 0 0.0015008 0.000106794 0 0.00148917 9.98226e-05 0 0.00147773 9.2786e-05 0 0.00146648 8.56843e-05 0 0.00145543 7.85175e-05 0 0.00144456 7.12855e-05 0 0.00143389 6.39884e-05 0 0.00142341 5.66262e-05 0 0.00141313 4.91988e-05 0 0.00140303 4.17062e-05 0 0.00139313 3.41486e-05 0 0.00138342 2.65258e-05 0 0.0013739 1.88378e-05 0 0.00136458 1.10848e-05 0 0.00135544 3.26657e-06 0 0.0013465 -4.61677e-06 0 0.00133775 -1.25653e-05 0 0.00132916 -2.05174e-05 0 0.00132068 -2.84118e-05 0 0.00131233 -3.62483e-05 0 0.00130409 -4.40271e-05 0 0.00129597 -5.1748e-05 0 0.00128797 -5.94112e-05 0 0.00128009 -6.70165e-05 0 0.00127233 -7.45641e-05 0 0.00126469 -8.20539e-05 0 0.00125716 -8.94858e-05 0 0.00124976 -9.686e-05 0 0.00124247 -0.000104176 0 0.0012353 -0.000111435 0 0.00122825 -0.000118636 0 0.00122132 -0.000125779 0 0.00121451 -0.000132864 0 0.00120781 -0.000139891 0 0.00120124 -0.000146861 0 0.00119478 -0.000153773 0 0.00118844 -0.000160627 0 0.00118223 -0.000167457 0 0.00117612 -0.000174299 0 0.00117014 -0.000181151 0 0.00116428 -0.000188015 0 0.00115853 -0.000194889 0 0.0011529 -0.000201775 0 0.00114739 -0.000208671 0 0.001142 -0.000215579 0 0.00113672 -0.000222497 0 0.00113156 -0.000229426 0 0.00112653 -0.000236367 0 0.0011216 -0.000243318 0 0.0011168 -0.00025028 0 0.00111212 -0.000257253 0 0.00110755 -0.000264238 0 0.0011031 -0.000271233 0 0.00109877 -0.000278239 0 0.00109455 -0.000285256 0 0.00109046 -0.000292284 0 0.00108648 -0.000299323 0 0.00108262 -0.000306361 0 0.00107888 -0.000313385 0 0.00107526 -0.000320395 0 0.00107175 -0.000327391 0 0.00106836 -0.000334374 0 0.00106509 -0.000341343 0 0.00106194 -0.000348298 0 0.00105891 -0.000355239 0 0.00105599 -0.000362167 0 0.00105319 -0.00036908 0 0.00105052 -0.00037598 0 0.00104795 -0.000382866 0 0.00104551 -0.000389739 0 0.00104318 -0.000396597 0 0.00104098 -0.000403442 0 0.00103889 -0.000410273 0 0.00103691 -0.000417091 0 0.00103506 -0.000423894 0 0.00103332 -0.000430684 0 0.0010317 -0.00043746 0 0.00103021 -0.000444205 0 0.00102884 -0.000450903 0 0.00102759 -0.000457553 0 0.00102647 -0.000464155 0 0.00102548 -0.00047071 0 0.00102461 -0.000477217 0 0.00102386 -0.000483677 0 0.00102324 -0.000490089 0 0.00102275 -0.000496453 0 0.00102238 -0.00050277 0 0.00102213 -0.000509039 0 0.00102202 -0.000515261 0 0.00102202 -0.000521435 0 0.00102216 -0.000527561 0 0.00102241 -0.00053364 0 0.0010228 -0.000539671 0 0.00102331 -0.000545655 0 0.00102394 -0.000551591 0 0.0010247 -0.000557479 0 0.00102558 -0.00056332 0 0.00102658 -0.000569069 0 0.00102767 -0.000574683 0 0.00102885 -0.000580161 0 0.00103013 -0.000585503 0 0.0010315 -0.00059071 0 0.00103297 -0.000595781 0 0.00103453 -0.000600717 0 0.00103619 -0.000605517 0 0.00103794 -0.000610182 0 0.00103979 -0.000614711 0 0.00104173 -0.000619104 0 0.00104377 -0.000623362 0 0.0010459 -0.000627484 0 0.00104813 -0.000631471 0 0.00105045 -0.000635322 0 0.00105286 -0.000639037 0 0.00105538 -0.000642617 0 0.00105798 -0.000646062 0 0.00106068 -0.000649371 0 0.00106348 -0.000652544 0 0.00106627 -0.00065549 0 0.00106895 -0.000658116 0 0.00107154 -0.000660423 0 0.00107402 -0.00066241 0 0.0010764 -0.000664078 0 0.00107867 -0.000665427 0 0.00108084 -0.000666456 0 0.00108291 -0.000667166 0 0.00108487 -0.000667557 0 0.00108673 -0.000667628 0 0.00108849 -0.000667379 0 0.00109014 -0.000666811 0 0.00109169 -0.000665924 0 0.00109314 -0.000664717 0 0.00109448 -0.000663191 0 0.00109572 -0.000661346 0 0.00109686 -0.000659181 0 0.00109789 -0.000656697 0 0.00109882 -0.000653893 0 0.00109964 -0.00065077 0 0.00639004 0.00487048 0 0.00615233 0.00450996 0 0.00592384 0.00416694 0 0.00570456 0.0038414 0 0.00549451 0.00353336 0 0.00529367 0.0032428 0 0.00510205 0.00296973 0 0.00491965 0.00271415 0 0.00474647 0.00247606 0 0.0045825 0.00225546 0 0.00442776 0.00205235 0 0.00428223 0.00186673 0 0.00414591 0.0016986 0 0.00401882 0.00154795 0 0.00390094 0.0014148 0 0.00379228 0.00129913 0 0.00369284 0.00120096 0 0.00360262 0.00112027 0 0.00352162 0.00105707 0 0.00344983 0.00101136 0 0.00338726 0.000983144 0 0.00333005 0.000963521 0 0.00327433 0.000943601 0 0.0032201 0.000923383 0 0.00316736 0.000902868 0 0.00311612 0.000882057 0 0.00306636 0.000860948 0 0.00301811 0.000839542 0 0.00297134 0.000817839 0 0.00292606 0.000795839 0 0.00288228 0.000773542 0 0.00283999 0.000750947 0 0.0027992 0.000728056 0 0.00275989 0.000704867 0 0.00272208 0.000681382 0 0.00268576 0.000657599 0 0.00265094 0.000633519 0 0.0026176 0.000609142 0 0.00258576 0.000584468 0 0.00255541 0.000559497 0 0.00252655 0.000534229 0 0.00249873 0.000509218 0 0.00247147 0.00048502 0 0.00244478 0.000461635 0 0.00241867 0.000439062 0 0.00239312 0.000417302 0 0.00236814 0.000396354 0 0.00234373 0.000376219 0 0.00231989 0.000356897 0 0.00229661 0.000338387 0 0.00227391 0.000320689 0 0.00225178 0.000303805 0 0.00223021 0.000287732 0 0.00220922 0.000272473 0 0.00218879 0.000258025 0 0.00216894 0.000244391 0 0.00214965 0.000231569 0 0.00213093 0.000219559 0 0.00211279 0.000208362 0 0.00209521 0.000197978 0 0.0020782 0.000188406 0 0.0020616 0.000179204 0 0.00204526 0.000169927 0 0.00202918 0.000160575 0 0.00201336 0.000151149 0 0.00199779 0.000141648 0 0.00198249 0.000132073 0 0.00196744 0.000122424 0 0.00195265 0.0001127 0 0.00193811 0.000102902 0 0.00192384 9.30289e-05 0 0.00190982 8.30817e-05 0 0.00189606 7.306e-05 0 0.00188256 6.29638e-05 0 0.00186932 5.27932e-05 0 0.00185633 4.25481e-05 0 0.0018436 3.22286e-05 0 0.00183113 2.18346e-05 0 0.00181892 1.13662e-05 0 0.00180697 8.2331e-07 0 0.00179527 -9.79404e-06 0 0.00178378 -2.04109e-05 0 0.00177245 -3.09523e-05 0 0.00176128 -4.14182e-05 0 0.00175027 -5.18086e-05 0 0.00173942 -6.21237e-05 0 0.00172873 -7.23632e-05 0 0.00171819 -8.25273e-05 0 0.00170782 -9.26159e-05 0 0.0016976 -0.000102629 0 0.00168754 -0.000112567 0 0.00167764 -0.000122429 0 0.0016679 -0.000132216 0 0.00165832 -0.000141927 0 0.00164889 -0.000151563 0 0.00163963 -0.000161123 0 0.00163052 -0.000170608 0 0.00162158 -0.000180018 0 0.00161279 -0.000189352 0 0.00160416 -0.00019861 0 0.00159569 -0.000207794 0 0.00158738 -0.000216945 0 0.00157922 -0.000226111 0 0.00157122 -0.000235289 0 0.00156337 -0.00024448 0 0.00155569 -0.000253685 0 0.00154816 -0.000262903 0 0.00154078 -0.000272134 0 0.00153356 -0.000281378 0 0.0015265 -0.000290635 0 0.00151959 -0.000299906 0 0.00151284 -0.00030919 0 0.00150625 -0.000318487 0 0.00149981 -0.000327797 0 0.00149353 -0.00033712 0 0.00148741 -0.000346456 0 0.00148144 -0.000355806 0 0.00147563 -0.000365169 0 0.00146997 -0.000374545 0 0.00146447 -0.000383934 0 0.00145913 -0.000393336 0 0.00145394 -0.000402736 0 0.00144891 -0.000412118 0 0.00144404 -0.000421483 0 0.00143932 -0.00043083 0 0.00143475 -0.000440159 0 0.00143034 -0.000449471 0 0.00142609 -0.000458765 0 0.00142199 -0.000468041 0 0.00141805 -0.0004773 0 0.00141426 -0.000486541 0 0.00141063 -0.000495764 0 0.00140715 -0.00050497 0 0.00140383 -0.000514157 0 0.00140066 -0.000523328 0 0.00139765 -0.00053248 0 0.0013948 -0.000541615 0 0.0013921 -0.000550732 0 0.00138956 -0.000559832 0 0.00138717 -0.000568914 0 0.00138494 -0.000577978 0 0.00138286 -0.000587002 0 0.00138096 -0.000595965 0 0.00137921 -0.000604865 0 0.00137763 -0.000613704 0 0.00137622 -0.000622481 0 0.00137497 -0.000631196 0 0.00137388 -0.000639849 0 0.00137296 -0.00064844 0 0.0013722 -0.00065697 0 0.00137161 -0.000665437 0 0.00137118 -0.000673843 0 0.00137092 -0.000682187 0 0.00137082 -0.000690469 0 0.00137088 -0.000698689 0 0.00137111 -0.000706847 0 0.00137151 -0.000714943 0 0.00137206 -0.000722977 0 0.00137279 -0.00073095 0 0.00137367 -0.00073886 0 0.00137473 -0.000746709 0 0.00137592 -0.000754438 0 0.00137724 -0.00076199 0 0.00137869 -0.000769365 0 0.00138026 -0.000776563 0 0.00138195 -0.000783584 0 0.00138377 -0.000790427 0 0.00138571 -0.000797094 0 0.00138778 -0.000803583 0 0.00138997 -0.000809895 0 0.00139229 -0.00081603 0 0.00139473 -0.000821988 0 0.0013973 -0.000827769 0 0.00139999 -0.000833373 0 0.0014028 -0.000838799 0 0.00140574 -0.000844049 0 0.00140881 -0.000849121 0 0.001412 -0.000854016 0 0.00141531 -0.000858734 0 0.00141875 -0.000863275 0 0.00142231 -0.000867639 0 0.00142587 -0.000871705 0 0.0014293 -0.000875352 0 0.00143259 -0.00087858 0 0.00143576 -0.00088139 0 0.00143879 -0.000883781 0 0.0014417 -0.000885754 0 0.00144447 -0.000887308 0 0.00144711 -0.000888443 0 0.00144961 -0.00088916 0 0.00145199 -0.000889458 0 0.00145424 -0.000889337 0 0.00145635 -0.000888797 0 0.00145833 -0.000887839 0 0.00146019 -0.000886463 0 0.00146191 -0.000884667 0 0.0014635 -0.000882453 0 0.00146495 -0.00087982 0 0.00146628 -0.000876769 0 0.00146747 -0.000873299 0 0.00146854 -0.00086941 0 0.00787438 0.00597014 0 0.0075884 0.00553529 0 0.0073134 0.00512141 0 0.00704939 0.00472848 0 0.00679636 0.00435653 0 0.00655431 0.00400553 0 0.00632325 0.0036755 0 0.00610317 0.00336643 0 0.00589407 0.00307832 0 0.00569596 0.00281118 0 0.00550883 0.002565 0 0.00533268 0.00233979 0 0.00516751 0.00213553 0 0.00501333 0.00195224 0 0.00487013 0.00178992 0 0.00473792 0.00164855 0 0.00461669 0.00152815 0 0.00450644 0.00142872 0 0.00440717 0.00135025 0 0.00431889 0.00129274 0 0.00424159 0.00125619 0 0.0041707 0.00122999 0 0.00410165 0.00120352 0 0.00403444 0.00117677 0 0.00396907 0.00114976 0 0.00390554 0.00112247 0 0.00384386 0.00109491 0 0.00378401 0.00106707 0 0.003726 0.00103897 0 0.00366983 0.00101059 0 0.0036155 0.000981946 0 0.00356301 0.000953026 0 0.00351236 0.000923834 0 0.00346355 0.000894369 0 0.00341657 0.000864633 0 0.00337144 0.000834625 0 0.00332815 0.000804345 0 0.0032867 0.000773793 0 0.00324709 0.000742969 0 0.00320932 0.000711873 0 0.00317339 0.000680505 0 0.00313872 0.000649495 0 0.00310476 0.00061947 0 0.00307151 0.000590431 0 0.00303895 0.000562378 0 0.00300709 0.000535311 0 0.00297594 0.000509231 0 0.00294548 0.000484136 0 0.00291573 0.000460028 0 0.00288668 0.000436905 0 0.00285833 0.000414768 0 0.00283068 0.000393618 0 0.00280374 0.000373454 0 0.00277749 0.000354275 0 0.00275195 0.000336083 0 0.0027271 0.000318876 0 0.00270296 0.000302656 0 0.00267952 0.000287422 0 0.00265678 0.000273174 0 0.00263475 0.000259911 0 0.00261341 0.000247635 0 0.00259259 0.000235813 0 0.00257209 0.000223914 0 0.00255191 0.000211937 0 0.00253206 0.000199882 0 0.00251254 0.00018775 0 0.00249334 0.00017554 0 0.00247446 0.000163253 0 0.00245591 0.000150888 0 0.00243768 0.000138445 0 0.00241978 0.000125925 0 0.0024022 0.000113327 0 0.00238494 0.000100652 0 0.00236801 8.78992e-05 0 0.00235141 7.50687e-05 0 0.00233513 6.21607e-05 0 0.00231917 4.91751e-05 0 0.00230354 3.6112e-05 0 0.00228823 2.29712e-05 0 0.00227325 9.7529e-06 0 0.00225859 -3.543e-06 0 0.00224419 -1.68315e-05 0 0.00222999 -3.00277e-05 0 0.002216 -4.31316e-05 0 0.0022022 -5.61432e-05 0 0.0021886 -6.90624e-05 0 0.00217519 -8.18894e-05 0 0.00216199 -9.4624e-05 0 0.00214899 -0.000107266 0 0.00213618 -0.000119816 0 0.00212358 -0.000132274 0 0.00211117 -0.000144639 0 0.00209897 -0.000156912 0 0.00208696 -0.000169093 0 0.00207515 -0.000181181 0 0.00206354 -0.000193177 0 0.00205213 -0.000205081 0 0.00204092 -0.000216892 0 0.00202991 -0.000228612 0 0.00201909 -0.000240238 0 0.00200848 -0.000251773 0 0.00199806 -0.000263268 0 0.00198784 -0.000274779 0 0.00197781 -0.000286304 0 0.00196798 -0.000297843 0 0.00195833 -0.000309397 0 0.00194889 -0.000320966 0 0.00193964 -0.00033255 0 0.00193058 -0.000344148 0 0.00192171 -0.000355761 0 0.00191304 -0.000367388 0 0.00190457 -0.00037903 0 0.00189629 -0.000390687 0 0.0018882 -0.000402358 0 0.00188031 -0.000414044 0 0.00187261 -0.000425745 0 0.0018651 -0.00043746 0 0.00185779 -0.00044919 0 0.00185068 -0.000460935 0 0.00184375 -0.000472694 0 0.00183703 -0.000484468 0 0.00183049 -0.000496238 0 0.00182415 -0.000507988 0 0.001818 -0.000519716 0 0.00181204 -0.000531423 0 0.00180627 -0.000543108 0 0.0018007 -0.000554773 0 0.00179532 -0.000566416 0 0.00179013 -0.000578038 0 0.00178513 -0.000589639 0 0.00178032 -0.000601218 0 0.00177571 -0.000612776 0 0.00177129 -0.000624313 0 0.00176706 -0.000635829 0 0.00176302 -0.000647324 0 0.00175918 -0.000658797 0 0.00175552 -0.000670249 0 0.00175206 -0.00068168 0 0.0017488 -0.00069309 0 0.00174572 -0.000704478 0 0.00174283 -0.000715845 0 0.00174015 -0.000727164 0 0.00173766 -0.000738408 0 0.00173538 -0.000749576 0 0.0017333 -0.000760669 0 0.00173142 -0.000771686 0 0.00172974 -0.000782628 0 0.00172827 -0.000793495 0 0.001727 -0.000804286 0 0.00172593 -0.000815002 0 0.00172506 -0.000825643 0 0.0017244 -0.000836208 0 0.00172393 -0.000846699 0 0.00172367 -0.000857113 0 0.00172362 -0.000867453 0 0.00172376 -0.000877717 0 0.0017241 -0.000887905 0 0.00172465 -0.000898018 0 0.0017254 -0.000908056 0 0.00172636 -0.000918019 0 0.00172751 -0.000927906 0 0.00172884 -0.000937647 0 0.00173033 -0.000947172 0 0.00173197 -0.000956479 0 0.00173376 -0.00096557 0 0.00173571 -0.000974443 0 0.00173781 -0.0009831 0 0.00174006 -0.00099154 0 0.00174247 -0.000999763 0 0.00174503 -0.00100777 0 0.00174774 -0.00101556 0 0.00175061 -0.00102313 0 0.00175363 -0.00103049 0 0.0017568 -0.00103763 0 0.00176013 -0.00104455 0 0.00176361 -0.00105125 0 0.00176725 -0.00105774 0 0.00177103 -0.00106401 0 0.00177497 -0.00107007 0 0.00177907 -0.0010759 0 0.00178332 -0.00108152 0 0.00178756 -0.00108678 0 0.00179165 -0.00109152 0 0.00179559 -0.00109575 0 0.00179937 -0.00109946 0 0.00180299 -0.00110266 0 0.00180646 -0.00110534 0 0.00180977 -0.00110751 0 0.00181292 -0.00110916 0 0.00181592 -0.0011103 0 0.00181876 -0.00111093 0 0.00182145 -0.00111104 0 0.00182398 -0.00111064 0 0.00182635 -0.00110972 0 0.00182857 -0.00110829 0 0.00183063 -0.00110635 0 0.00183254 -0.00110389 0 0.00183429 -0.00110092 0 0.00183588 -0.00109743 0 0.00183732 -0.00109343 0 0.0018386 -0.00108891 0 0.00931346 0.00702262 0 0.00898367 0.00651976 0 0.00866641 0.00604097 0 0.00836169 0.00558626 0 0.0080695 0.00515563 0 0.00778984 0.00474907 0 0.00752272 0.0043666 0 0.00726813 0.0040082 0 0.00702607 0.00367388 0 0.00679654 0.00336364 0 0.00657955 0.00307748 0 0.00637509 0.00281539 0 0.00618316 0.00257738 0 0.00600377 0.00236345 0 0.0058369 0.0021736 0 0.00568257 0.00200783 0 0.00554078 0.00186614 0 0.00541151 0.00174852 0 0.00529478 0.00165498 0 0.00519058 0.00158552 0 0.00509892 0.00154014 0 0.00501461 0.00150669 0 0.00493247 0.00147304 0 0.00485252 0.00143918 0 0.00477474 0.00140511 0 0.00469913 0.00137084 0 0.00462571 0.00133636 0 0.00455446 0.00130167 0 0.00448538 0.00126677 0 0.00441849 0.00123167 0 0.00435377 0.00119636 0 0.00429122 0.00116084 0 0.00423086 0.00112512 0 0.00417267 0.00108919 0 0.00411666 0.00105305 0 0.00406282 0.0010167 0 0.00401116 0.00098015 0 0.00396168 0.00094339 0 0.00391438 0.000906424 0 0.00386925 0.00086925 0 0.00382629 0.00083187 0 0.00378485 0.000794959 0 0.00374423 0.000759197 0 0.00370444 0.000724582 0 0.00366548 0.000691114 0 0.00362735 0.000658794 0 0.00359004 0.000627622 0 0.00355357 0.000597598 0 0.00351793 0.000568721 0 0.00348311 0.000540992 0 0.00344913 0.00051441 0 0.00341597 0.000488976 0 0.00338365 0.00046469 0 0.00335215 0.000441552 0 0.00332148 0.000419561 0 0.00329164 0.000398717 0 0.00326263 0.000379021 0 0.00323445 0.000360473 0 0.0032071 0.000343073 0 0.00318058 0.00032682 0 0.00315489 0.000311715 0 0.00312981 0.000297146 0 0.00310512 0.000282503 0 0.00308082 0.000267786 0 0.00305691 0.000252994 0 0.0030334 0.000238127 0 0.00301028 0.000223186 0 0.00298755 0.00020817 0 0.00296521 0.00019308 0 0.00294326 0.000177916 0 0.00292171 0.000162677 0 0.00290054 0.000147363 0 0.00287977 0.000131975 0 0.00285939 0.000116512 0 0.00283941 0.000100975 0 0.00281981 8.53635e-05 0 0.00280061 6.96774e-05 0 0.00278179 5.39168e-05 0 0.00276337 3.80816e-05 0 0.00274534 2.2172e-05 0 0.00272771 6.18786e-06 0 0.00271039 -9.77934e-06 0 0.0026933 -2.56382e-05 0 0.00267646 -4.13886e-05 0 0.00265986 -5.70307e-05 0 0.0026435 -7.25644e-05 0 0.00262738 -8.79897e-05 0 0.00261149 -0.000103307 0 0.00259585 -0.000118515 0 0.00258044 -0.000133615 0 0.00256528 -0.000148607 0 0.00255036 -0.000163491 0 0.00253567 -0.000178266 0 0.00252123 -0.000192932 0 0.00250702 -0.000207491 0 0.00249305 -0.00022194 0 0.00247933 -0.000236282 0 0.00246584 -0.000250515 0 0.00245259 -0.00026464 0 0.00243959 -0.000278656 0 0.00242682 -0.000292564 0 0.00241429 -0.000306426 0 0.00240199 -0.000320303 0 0.00238992 -0.000334195 0 0.00237808 -0.000348103 0 0.00236647 -0.000362026 0 0.0023551 -0.000375964 0 0.00234396 -0.000389918 0 0.00233304 -0.000403887 0 0.00232236 -0.000417872 0 0.00231192 -0.000431872 0 0.0023017 -0.000445888 0 0.00229171 -0.000459918 0 0.00228196 -0.000473965 