<?xml version="1.0"?> 
<VTKFile type="StructuredGrid" version="0.1"> 
<StructuredGrid WholeExtent="0 200 0 200 0 0"> 
<Piece Extent="0 200 0 200 0 0"> 
<PointData Scalars="Stress components">
<DataArray type="Float32" Name="sigma_xx" format="ascii" NumberOfComponents="1"> 
1.37758 1.26968 1.16712 1.06991 0.978049 0.891529 0.810354 0.734525 0.664041 0.598903 0.53911 0.484662 0.43556 0.391803 0.353392 0.320326 0.292605 0.27023 0.2532 0.241516 0.235177 0.23143 0.227521 0.223451 0.21922 0.214827 0.210272 0.205556 0.200678 0.195639 0.190439 0.185077 0.179553 0.173868 0.168022 0.162014 0.155844 0.149513 0.14302 0.136366 0.129551 0.122774 0.116235 0.109934 0.103872 0.0980473 0.0924613 0.0871134 0.0820038 0.0771324 0.0724993 0.0681043 0.0639476 0.0600291 0.0563488 0.0529067 0.0497029 0.0467373 0.0440099 0.0415207 0.0392698 0.0371216 0.034941 0.0327277 0.0304819 0.0282036 0.0258927 0.0235492 0.0211732 0.0187646 0.0163235 0.0138498 0.0113435 0.00880472 0.00623336 0.00362943 0.00099295 -0.00167609 -0.00437769 -0.00711184 -0.00987855 -0.0126508 -0.0154015 -0.0181308 -0.0208386 -0.0235248 -0.0261896 -0.0288329 -0.0314547 -0.034055 -0.0366338 -0.0391912 -0.041727 -0.0442413 -0.0467342 -0.0492055 -0.0516554 -0.0540837 -0.0564906 -0.058876 -0.0612399 -0.0635955 -0.0659561 -0.0683217 -0.0706923 -0.0730679 -0.0754485 -0.0778341 -0.0802246 -0.0826202 -0.0850207 -0.0874263 -0.0898368 -0.0922523 -0.0946728 -0.0970983 -0.0995287 -0.101964 -0.104405 -0.10685 -0.109301 -0.111751 -0.114196 -0.116635 -0.119069 -0.121498 -0.123922 -0.12634 -0.128752 -0.13116 -0.133562 -0.135958 -0.138349 -0.140735 -0.143116 -0.145491 -0.147861 -0.150225 -0.152584 -0.154938 -0.157286 -0.159623 -0.161941 -0.164242 -0.166525 -0.16879 -0.171037 -0.173266 -0.175478 -0.177671 -0.179846 -0.182004 -0.184143 -0.186265 -0.188369 -0.190454 -0.192522 -0.194572 -0.196604 -0.198618 -0.200614 -0.202576 -0.204488 -0.20635 -0.208161 -0.209922 -0.211632 -0.213292 -0.214902 -0.216462 -0.217971 -0.21943 -0.220838 -0.222197 -0.223505 -0.224762 -0.22597 -0.227127 -0.228233 -0.22929 -0.230296 -0.231218 -0.232023 -0.23271 -0.23328 -0.233732 -0.234067 -0.234284 -0.234384 -0.234366 -0.234231 -0.233978 -0.233608 -0.23312 -0.232515 -0.231793 -0.230952 -0.229995 -0.22892 -0.227727 -0.226417 1.10432 1.01146 0.923595 0.840735 0.762874 0.690012 0.62215 0.559288 0.501425 0.448561 0.400697 0.357833 0.319968 0.287102 0.259236 0.23637 0.218503 0.205635 0.197767 0.194899 0.19703 0.193849 0.190547 0.187125 0.183582 0.179919 0.176135 0.17223 0.168205 0.164059 0.159792 0.155405 0.150898 0.146269 0.141521 0.136651 0.131661 0.12655 0.121319 0.115967 0.110495 0.104324 0.098381 0.0926648 0.0871758 0.081914 0.0768793 0.0720718 0.0674915 0.0631383 0.0590123 0.0551135 0.0514418 0.0479974 0.04478 0.0417899 0.0390269 0.0364911 0.0341825 0.0321011 0.0302468 0.0281625 0.026052 0.0239153 0.0217524 0.0195632 0.0173478 0.0151061 0.0128383 0.0105442 0.00822387 0.00587732 0.00350454 0.00110553 -0.00131971 -0.00377118 -0.00624887 -0.0087528 -0.011283 -0.0138393 -0.016422 -0.0190743 -0.0217058 -0.0243166 -0.0269066 -0.0294758 -0.0320242 -0.0345519 -0.0370588 -0.0395449 -0.0420102 -0.0444547 -0.0468785 -0.0492815 -0.0516637 -0.0540251 -0.0563657 -0.0586856 -0.0609847 -0.063263 -0.0655206 -0.0677761 -0.0700359 -0.0722999 -0.0745682 -0.0768407 -0.0791175 -0.0813985 -0.0836838 -0.0859734 -0.0882672 -0.0905652 -0.0928675 -0.0951741 -0.0974849 -0.0997999 -0.102119 -0.104443 -0.106771 -0.109103 -0.111439 -0.11377 -0.116096 -0.118417 -0.120733 -0.123044 -0.12535 -0.12765 -0.129946 -0.132237 -0.134523 -0.136803 -0.139079 -0.14135 -0.143615 -0.145876 -0.148131 -0.150382 -0.152627 -0.154868 -0.157103 -0.159312 -0.161505 -0.16368 -0.165838 -0.167978 -0.170102 -0.172208 -0.174297 -0.176369 -0.178424 -0.180461 -0.182482 -0.184485 -0.186471 -0.18844 -0.190392 -0.192326 -0.194243 -0.196143 -0.198026 -0.199896 -0.201717 -0.203489 -0.205212 -0.206887 -0.208513 -0.210091 -0.211619 -0.213099 -0.214531 -0.215913 -0.217247 -0.218532 -0.219769 -0.220957 -0.222096 -0.223186 -0.224228 -0.22522 -0.226165 -0.227224 -0.228169 -0.229 -0.229716 -0.230317 -0.230805 -0.231178 -0.231436 -0.231581 -0.23161 -0.231526 -0.231327 -0.231013 -0.230586 -0.230043 -0.229387 -0.228616 -0.22773 -0.226731 -0.225616 0.844892 0.766428 0.692615 0.623454 0.558944 0.499085 0.443878 0.393323 0.347419 0.306167 0.269566 0.237617 0.210319 0.187673 0.169678 0.156335 0.147643 0.143603 0.144214 0.149477 0.159391 0.15675 0.154029 0.151229 0.14835 0.145391 0.142352 0.139234 0.136037 0.13276 0.129404 0.125968 0.122453 0.118858 0.115184 0.111431 0.107598 0.103685 0.0996936 0.0956223 0.0914716 0.0858959 0.0805362 0.0753926 0.0704651 0.0657536 0.0612582 0.0569788 0.0529154 0.0490682 0.0454369 0.0420218 0.0388226 0.0358396 0.0330725 0.0305216 0.0281867 0.0260678 0.024165 0.0224782 0.0210075 0.0189919 0.0169564 0.014901 0.0128258 0.0107307 0.00861574 0.00648093 0.00432625 0.00215171 -4.26924e-05 -0.00225696 -0.00449108 -0.00674507 -0.00901892 -0.0113126 -0.0136262 -0.0159597 -0.018313 -0.0206861 -0.0230791 -0.0256102 -0.0281212 -0.0306122 -0.0330831 -0.0355339 -0.0379647 -0.0403754 -0.042766 -0.0451366 -0.0474871 -0.0498176 -0.052128 -0.0544184 -0.0566886 -0.0589389 -0.061169 -0.0633791 -0.0655692 -0.0677392 -0.0698891 -0.0720452 -0.0742049 -0.076368 -0.0785347 -0.0807049 -0.0828786 -0.0850558 -0.0872365 -0.0894207 -0.0916084 -0.0937996 -0.0959944 -0.0981926 -0.100394 -0.1026 -0.104808 -0.107021 -0.109237 -0.111456 -0.113679 -0.115893 -0.118102 -0.120307 -0.122507 -0.124702 -0.126893 -0.129079 -0.13126 -0.133437 -0.135609 -0.137776 -0.139938 -0.142096 -0.144249 -0.146397 -0.148541 -0.15068 -0.152814 -0.154944 -0.157069 -0.159155 -0.161224 -0.163278 -0.165315 -0.167335 -0.169339 -0.171326 -0.173297 -0.175252 -0.17719 -0.179112 -0.181017 -0.182906 -0.184778 -0.186634 -0.188473 -0.190296 -0.192103 -0.193893 -0.195667 -0.197447 -0.19918 -0.200867 -0.202506 -0.204098 -0.205643 -0.207141 -0.208592 -0.209996 -0.211352 -0.212662 -0.213924 -0.21514 -0.216308 -0.217429 -0.218504 -0.219531 -0.220511 -0.221444 -0.222329 -0.223518 -0.224595 -0.225561 -0.226415 -0.227158 -0.22779 -0.228311 -0.22872 -0.229019 -0.229205 -0.229281 -0.229245 -0.229098 -0.22884 -0.22847 -0.227989 -0.227397 -0.226694 -0.225879 -0.224953 0.599441 0.534719 0.474298 0.418179 0.366361 0.318845 0.27563 0.236716 0.202104 0.171793 0.145783 0.124075 0.106669 0.0935633 0.0847593 0.0802568 0.0800557 0.0841559 0.0925576 0.105261 0.122265 0.120137 0.117972 0.115768 0.113526 0.111246 0.108928 0.106572 0.104178 0.101746 0.0992756 0.0967674 0.0942212 0.0916368 0.0890145 0.0863541 0.0836556 0.0809191 0.0781445 0.0753319 0.0724812 0.0674884 0.0627005 0.0581175 0.0537393 0.0495659 0.0455975 0.0418339 0.0382752 0.0349213 0.0317723 0.0288282 0.0260889 0.0235545 0.021225 0.0191003 0.0171806 0.0154656 0.0139556 0.0126504 0.01155 0.00960781 0.00765213 0.00568299 0.0037004 0.00170435 -0.000305153 -0.00232811 -0.00436453 -0.00641441 -0.00847774 -0.0105545 -0.0126448 -0.0147485 -0.0168656 -0.0189962 -0.0211403 -0.0232978 -0.0254688 -0.0276533 -0.0298512 -0.0322596 -0.0346487 -0.0370185 -0.039369 -0.0417001 -0.0440119 -0.0463043 -0.0485774 -0.0508312 -0.0530656 -0.0552807 -0.0574765 -0.0596529 -0.0618099 -0.0639477 -0.0660661 -0.0681652 -0.0702449 -0.0723053 -0.0743463 -0.0764038 -0.078464 -0.080527 -0.0825928 -0.0846613 -0.0867326 -0.0888066 -0.0908834 -0.092963 -0.0950453 -0.0971304 -0.0992183 -0.101309 -0.103402 -0.105498 -0.107597 -0.109699 -0.111803 -0.113911 -0.116021 -0.11812 -0.120216 -0.122306 -0.124393 -0.126475 -0.128553 -0.130627 -0.132696 -0.13476 -0.136821 -0.138877 -0.140928 -0.142976 -0.145019 -0.147057 -0.149091 -0.151121 -0.153146 -0.155168 -0.157184 -0.159151 -0.161102 -0.163038 -0.164958 -0.166862 -0.16875 -0.170623 -0.17248 -0.174321 -0.176147 -0.177956 -0.17975 -0.181529 -0.183292 -0.185039 -0.18677 -0.188485 -0.190185 -0.191869 -0.193538 -0.195232 -0.196882 -0.198485 -0.200044 -0.201556 -0.203024 -0.204445 -0.205822 -0.207153 -0.208438 -0.209678 -0.210873 -0.212022 -0.213125 -0.214184 -0.215196 -0.216164 -0.217085 -0.217962 -0.218793 -0.220102 -0.221303 -0.222396 -0.223381 -0.224257 -0.225026 -0.225686 -0.226238 -0.226682 -0.227018 -0.227246 -0.227365 -0.227376 -0.22728 -0.227075 -0.226762 -0.22634 -0.225811 -0.225173 -0.224428 0.36809 0.316452 0.268762 0.225022 0.185231 0.149389 0.117497 0.0895531 0.0655586 0.0455133 0.029417 0.0172699 0.00907192 0.00482306 0.00452332 0.0081727 0.0157712 0.0273188 0.0428156 0.0622615 0.0856565 0.0840156 0.0823784 0.0807447 0.0791147 0.0774882 0.0758654 0.0742462 0.0726305 0.0710185 0.0694101 0.0678053 0.0662041 0.0646065 0.0630125 0.0614221 0.0598353 0.0582521 0.0566725 0.0550965 0.0535241 0.0491022 0.0448739 0.0408393 0.0369982 0.0333508 0.0298969 0.0266367 0.0235701 0.020697 0.0180176 0.0155319 0.0132397 0.0111411 0.00923617 0.00752483 0.0060071 0.00468298 0.00355247 0.00261557 0.00187229 8.32729e-06 -0.00186264 -0.00374063 -0.00562562 -0.00751763 -0.00941664 -0.0113227 -0.0132357 -0.0151558 -0.0170828 -0.0190169 -0.020958 -0.0229061 -0.0248612 -0.0268233 -0.0287924 -0.0307686 -0.0327517 -0.0347419 -0.0367391 -0.0390235 -0.0412894 -0.0435367 -0.0457654 -0.0479754 -0.0501669 -0.0523397 -0.0544939 -0.0566296 -0.0587466 -0.0608449 -0.0629247 -0.0649859 -0.0670285 -0.0690524 -0.0710578 -0.0730445 -0.0750126 -0.0769621 -0.078893 -0.0808526 -0.0828141 -0.0847776 -0.0867432 -0.0887107 -0.0906803 -0.0926519 -0.0946255 -0.0966011 -0.0985787 -0.100558 -0.10254 -0.104524 -0.106509 -0.108497 -0.110487 -0.112478 -0.114472 -0.116468 -0.118466 -0.120453 -0.122437 -0.124416 -0.126392 -0.128363 -0.130331 -0.132294 -0.134253 -0.136209 -0.13816 -0.140107 -0.142051 -0.14399 -0.145925 -0.147856 -0.149783 -0.151706 -0.153625 -0.15554 -0.157451 -0.159303 -0.16114 -0.162962 -0.164768 -0.16656 -0.168337 -0.170099 -0.171846 -0.173578 -0.175295 -0.176997 -0.178684 -0.180356 -0.182013 -0.183656 -0.185283 -0.186895 -0.188492 -0.190075 -0.191642 -0.193254 -0.194822 -0.196347 -0.197827 -0.199264 -0.200657 -0.202006 -0.203311 -0.204573 -0.205791 -0.206964 -0.208095 -0.209181 -0.210223 -0.211222 -0.212176 -0.213087 -0.213954 -0.214778 -0.215557 -0.216979 -0.218296 -0.219508 -0.220614 -0.221616 -0.222513 -0.223305 -0.223991 -0.224573 -0.22505 -0.225422 -0.225688 -0.22585 -0.225907 -0.225858 -0.225705 -0.225447 -0.225083 -0.224615 -0.224042 0.150969 0.111749 0.0761247 0.0440946 0.0156592 -0.00918146 -0.0304275 -0.0480788 -0.0621355 -0.0725974 -0.0794647 -0.0827373 -0.0824152 -0.0784984 -0.070987 -0.0598808 -0.04518 -0.0268845 -0.00499429 0.0204906 0.0495702 0.0483893 0.0472539 0.0461641 0.0451198 0.044121 0.0431677 0.0422599 0.0413976 0.0405809 0.0398096 0.0390839 0.0384037 0.037769 0.0371799 0.0366362 0.0361381 0.0356854 0.0352783 0.0349167 0.0346006 0.0307375 0.0270566 0.023558 0.0202418 0.0171078 0.0141561 0.0113866 0.00879949 0.00639465 0.00417208 0.00213181 0.000273823 -0.00140188 -0.00289529 -0.00420642 -0.00533526 -0.00628181 -0.00704607 -0.00762805 -0.00802774 -0.00980855 -0.0115899 -0.0133717 -0.0151541 -0.016937 -0.0187205 -0.0205045 -0.0222889 -0.024074 -0.0258595 -0.0276456 -0.0294322 -0.0312193 -0.033007 -0.0347951 -0.0365838 -0.0383731 -0.0401628 -0.0419531 -0.0437439 -0.0459031 -0.0480443 -0.0501677 -0.0522733 -0.0543609 -0.0564307 -0.0584825 -0.0605165 -0.0625327 -0.0645309 -0.0665113 -0.0684738 -0.0704184 -0.0723451 -0.074254 -0.0761449 -0.078018 -0.0798733 -0.0817106 -0.0835301 -0.0853924 -0.0872559 -0.0891207 -0.0909868 -0.0928541 -0.0947227 -0.0965925 -0.0984636 -0.100336 -0.10221 -0.104084 -0.105961 -0.107838 -0.109717 -0.111596 -0.113478 -0.11536 -0.117244 -0.119129 -0.121015 -0.122893 -0.124767 -0.126637 -0.128504 -0.130367 -0.132227 -0.134083 -0.135935 -0.137783 -0.139628 -0.141469 -0.143306 -0.14514 -0.146969 -0.148796 -0.150618 -0.152437 -0.154252 -0.156064 -0.157871 -0.159612 -0.161338 -0.16305 -0.164748 -0.166432 -0.168101 -0.169757 -0.171398 -0.173024 -0.174637 -0.176235 -0.17782 -0.17939 -0.180945 -0.182487 -0.184014 -0.185527 -0.187026 -0.188511 -0.189981 -0.191514 -0.193005 -0.194453 -0.19586 -0.197224 -0.198546 -0.199826 -0.201063 -0.202259 -0.203412 -0.204523 -0.205592 -0.206619 -0.207604 -0.208546 -0.209446 -0.210304 -0.21112 -0.211894 -0.212626 -0.214152 -0.215576 -0.216898 -0.218119 -0.219238 -0.220254 -0.221169 -0.221983 -0.222694 -0.223303 -0.223811 -0.224217 -0.224521 -0.224723 -0.224823 -0.224822 -0.224718 -0.224513 -0.224206 -0.223797 -0.0517901 -0.0792616 -0.103495 -0.12449 -0.142248 -0.156767 -0.168048 -0.176091 -0.180896 -0.182463 -0.180792 -0.175883 -0.167736 -0.156351 -0.141728 -0.123866 -0.102767 -0.0784297 -0.0508542 -0.0200406 0.014011 0.013263 0.0126026 0.01203 0.0115451 0.0111478 0.0108382 0.0106163 0.0104821 0.0104356 0.0104768 0.0106056 0.0108221 0.0111263 0.0115182 0.0119978 0.0125651 0.01322 0.0139627 0.014793 0.015711 0.0123943 0.0092486 0.00627374 0.00346979 0.000836721 -0.00162545 -0.00391673 -0.00603712 -0.00798661 -0.00976521 -0.0113729 -0.0128097 -0.0140757 -0.0151707 -0.0160948 -0.0168481 -0.0174304 -0.0178419 -0.0180824 -0.0181521 -0.0198448 -0.0215316 -0.0232123 -0.024887 -0.0265557 -0.0282185 -0.0298752 -0.0315259 -0.0331707 -0.0348094 -0.0364421 -0.0380689 -0.0396896 -0.0413043 -0.0429131 -0.0445158 -0.0461126 -0.0477033 -0.0492881 -0.0508668 -0.0528992 -0.0549145 -0.0569127 -0.0588936 -0.0608575 -0.0628042 -0.0647338 -0.0666462 -0.0685415 -0.0704196 -0.0722806 -0.0741245 -0.0759512 -0.0777608 -0.0795532 -0.0813285 -0.0830867 -0.0848277 -0.0865515 -0.0882582 -0.0900241 -0.0917904 -0.0935572 -0.0953245 -0.0970923 -0.0988606 -0.100629 -0.102399 -0.104169 -0.105939 -0.10771 -0.109481 -0.111253 -0.113025 -0.114798 -0.116571 -0.118345 -0.120119 -0.121894 -0.123669 -0.12544 -0.127207 -0.128971 -0.130732 -0.132489 -0.134243 -0.135993 -0.13774 -0.139484 -0.141225 -0.142962 -0.144696 -0.146426 -0.148153 -0.149877 -0.151598 -0.153315 -0.155028 -0.156739 -0.158446 -0.160079 -0.161699 -0.163306 -0.164899 -0.166479 -0.168045 -0.169597 -0.171137 -0.172662 -0.174175 -0.175674 -0.177159 -0.178631 -0.18009 -0.181535 -0.182966 -0.184384 -0.185789 -0.18718 -0.188558 -0.190015 -0.191432 -0.192808 -0.194143 -0.195438 -0.196692 -0.197906 -0.19908 -0.200213 -0.201305 -0.202357 -0.203369 -0.204339 -0.20527 -0.20616 -0.207009 -0.207818 -0.208586 -0.209314 -0.210001 -0.211623 -0.213146 -0.214571 -0.215897 -0.217124 -0.218253 -0.219283 -0.220214 -0.221046 -0.22178 -0.222416 -0.222952 -0.22339 -0.22373 -0.223971 -0.224113 -0.224156 -0.224101 -0.223947 -0.223694 -0.240054 -0.256454 -0.269976 -0.280618 -0.288381 -0.293265 -0.29527 -0.294395 -0.290641 -0.284008 -0.274496 -0.262104 -0.246834 -0.228684 -0.207655 -0.183746 -0.156959 -0.127292 -0.094746 -0.0593207 -0.0210162 -0.0213587 -0.0215711 -0.0216534 -0.0216056 -0.0214276 -0.0211195 -0.0206813 -0.020113 -0.0194146 -0.0185861 -0.0176274 -0.0165387 -0.0153198 -0.0139708 -0.0124917 -0.0108825 -0.00914315 -0.0072737 -0.00527414 -0.00314446 -0.00592695 -0.00855001 -0.0110136 -0.0133179 -0.0154626 -0.017448 -0.0192739 -0.0209404 -0.0224475 -0.0237951 -0.0249833 -0.0260121 -0.0268814 -0.0275914 -0.0281419 -0.0285329 -0.0287646 -0.0288368 -0.0287496 -0.0285029 -0.0301026 -0.0316897 -0.0332642 -0.0348262 -0.0363755 -0.0379124 -0.0394367 -0.0409484 -0.0424475 -0.0439341 -0.0454081 -0.0468695 -0.0483184 -0.0497547 -0.0511785 -0.0525897 -0.0539883 -0.0553744 -0.0567479 -0.0581088 -0.0600131 -0.061901 -0.0637725 -0.0656276 -0.0674663 -0.0692886 -0.0710945 -0.0728839 -0.074657 -0.0764137 -0.078154 -0.0798779 -0.0815853 -0.0832764 -0.0849511 -0.0866094 -0.0882512 -0.0898767 -0.0914858 -0.0930784 -0.0947485 -0.0964183 -0.0980879 -0.0997572 -0.101426 -0.103095 -0.104763 -0.106432 -0.1081 -0.109767 -0.111435 -0.113102 -0.114769 -0.116435 -0.118102 -0.119768 -0.121433 -0.123099 -0.124764 -0.126429 -0.128095 -0.129758 -0.131418 -0.133075 -0.134729 -0.136379 -0.138027 -0.139672 -0.141314 -0.142953 -0.144589 -0.146222 -0.147851 -0.149478 -0.151102 -0.152723 -0.154341 -0.155955 -0.157567 -0.159176 -0.160706 -0.162224 -0.163729 -0.165222 -0.166702 -0.168169 -0.169623 -0.171065 -0.172494 -0.17391 -0.175313 -0.176704 -0.178082 -0.179448 -0.180801 -0.182141 -0.183468 -0.184783 -0.186085 -0.187374 -0.188759 -0.190104 -0.191411 -0.19268 -0.193909 -0.195099 -0.196251 -0.197364 -0.198437 -0.199472 -0.200469 -0.201426 -0.202345 -0.203224 -0.204065 -0.204867 -0.20563 -0.206354 -0.20704 -0.207686 -0.209396 -0.211009 -0.212528 -0.21395 -0.215278 -0.21651 -0.217646 -0.218687 -0.219633 -0.220483 -0.221238 -0.221897 -0.222461 -0.222929 -0.223302 -0.22358 -0.223762 -0.223848 -0.22384 -0.223735 -0.413687 -0.4197 -0.423195 -0.424173 -0.422632 -0.418572 -0.411995 -0.4029 -0.391286 -0.377154 -0.360504 -0.341336 -0.31965 -0.295446 -0.268723 -0.239482 -0.207723 -0.173446 -0.136651 -0.097338 -0.0555065 -0.0554711 -0.0552629 -0.0548819 -0.0543281 -0.0536015 -0.0527021 -0.0516299 -0.0503849 -0.048967 -0.0473764 -0.0456129 -0.0436766 -0.0415676 -0.0392857 -0.036831 -0.0342035 -0.0314032 -0.02843 -0.0252841 -0.0219654 -0.0242262 -0.0263391 -0.0283042 -0.0301213 -0.0317906 -0.0333119 -0.0346854 -0.035911 -0.0369886 -0.0379184 -0.0387003 -0.0393343 -0.0398205 -0.0401587 -0.040349 -0.0403914 -0.040286 -0.0400326 -0.0396314 -0.0390823 -0.0405838 -0.0420662 -0.0435294 -0.0449735 -0.0463984 -0.0478041 -0.0491906 -0.050558 -0.0519062 -0.0532352 -0.054545 -0.0558357 -0.0571073 -0.0583596 -0.0595928 -0.0608068 -0.0620016 -0.0631773 -0.0643338 -0.0654711 -0.0672459 -0.069005 -0.0707484 -0.0724762 -0.0741883 -0.0758848 -0.0775656 -0.0792307 -0.0808802 -0.0825141 -0.0841323 -0.0857348 -0.0873217 -0.0888929 -0.0904485 -0.0919884 -0.0935126 -0.0950212 -0.0965142 -0.0979914 -0.0995666 -0.101141 -0.102714 -0.104286 -0.105857 -0.107427 -0.108995 -0.110563 -0.11213 -0.113696 -0.115261 -0.116824 -0.118387 -0.119949 -0.121509 -0.123069 -0.124627 -0.126185 -0.127741 -0.129296 -0.13086 -0.132421 -0.133979 -0.135535 -0.137088 -0.138638 -0.140186 -0.141731 -0.143273 -0.144813 -0.14635 -0.147884 -0.149416 -0.150945 -0.152471 -0.153995 -0.155516 -0.157034 -0.15855 -0.160063 -0.161495 -0.162915 -0.164323 -0.165719 -0.167103 -0.168475 -0.169835 -0.171183 -0.17252 -0.173844 -0.175157 -0.176457 -0.177746 -0.179022 -0.180287 -0.18154 -0.182781 -0.18401 -0.185227 -0.186432 -0.187747 -0.189026 -0.190267 -0.191472 -0.192639 -0.193768 -0.194861 -0.195917 -0.196935 -0.197916 -0.19886 -0.199767 -0.200637 -0.201469 -0.202265 -0.203023 -0.203744 -0.204428 -0.205075 -0.205684 -0.207472 -0.209168 -0.210771 -0.212283 -0.213702 -0.215028 -0.216263 -0.217405 -0.218456 -0.219414 -0.220279 -0.221053 -0.221734 -0.222323 -0.22282 -0.223225 -0.223537 -0.223757 -0.223885 -0.223921 -0.572552 -0.568869 -0.56303 -0.555036 -0.544888 -0.532584 -0.518126 -0.501513 -0.482746 -0.461823 -0.438745 -0.413513 -0.386126 -0.356584 -0.324887 -0.291036 -0.255029 -0.216868 -0.176552 -0.134081 -0.0894547 -0.0890694 -0.0884682 -0.0876513 -0.0866187 -0.0853702 -0.083906 -0.0822261 -0.0803303 -0.0782188 -0.0758915 -0.0733485 -0.0705897 -0.0676151 -0.0644247 -0.0610186 -0.0573967 -0.053559 -0.0495056 -0.0452364 -0.0407515 -0.0425032 -0.0441187 -0.0455978 -0.0469407 -0.0481473 -0.0492176 -0.0501517 -0.0509494 -0.0516109 -0.0521361 -0.052525 -0.0527776 -0.0528939 -0.052874 -0.0527177 -0.0524252 -0.0519964 -0.0514313 -0.05073 -0.0498923 -0.0512907 -0.0526633 -0.05401 -0.0553309 -0.0566261 -0.0578954 -0.0591388 -0.0603565 -0.0615484 -0.0627144 -0.0638546 -0.064969 -0.0660576 -0.0671203 -0.0681573 -0.0691684 -0.0701537 -0.0711132 -0.0720469 -0.0729548 -0.0745985 -0.0762274 -0.0778414 -0.0794405 -0.0810246 -0.0825939 -0.0841482 -0.0856876 -0.0872122 -0.0887218 -0.0902165 -0.0916963 -0.0931612 -0.0946112 -0.0960463 -0.0974665 -0.0988718 -0.100262 -0.101638 -0.102998 -0.104479 -0.105958 -0.107435 -0.108911 -0.110385 -0.111856 -0.113326 -0.114795 -0.116261 -0.117726 -0.119188 -0.120649 -0.122109 -0.123566 -0.125021 -0.126475 -0.127927 -0.129377 -0.130825 -0.132272 -0.133736 -0.135197 -0.136656 -0.138113 -0.139568 -0.14102 -0.14247 -0.143918 -0.145363 -0.146806 -0.148247 -0.149685 -0.151121 -0.152555 -0.153986 -0.155416 -0.156842 -0.158267 -0.159689 -0.161109 -0.162446 -0.163773 -0.165087 -0.166391 -0.167684 -0.168965 -0.170236 -0.171495 -0.172743 -0.173979 -0.175205 -0.17642 -0.177623 -0.178815 -0.179996 -0.181166 -0.182324 -0.183472 -0.184608 -0.185733 -0.186984 -0.188198 -0.189378 -0.190521 -0.19163 -0.192703 -0.19374 -0.194742 -0.195708 -0.196639 -0.197535 -0.198395 -0.199219 -0.200008 -0.200762 -0.20148 -0.202163 -0.20281 -0.203422 -0.203998 -0.205856 -0.207625 -0.209305 -0.210896 -0.212398 -0.213811 -0.215135 -0.21637 -0.217517 -0.218574 -0.219542 -0.220421 -0.221212 -0.221913 -0.222525 -0.223049 -0.223483 -0.223829 -0.224085 -0.224253 -0.716512 -0.703827 -0.689353 -0.67309 -0.655037 -0.635195 -0.613564 -0.590143 -0.564934 -0.537935 -0.509147 -0.478569 -0.446202 -0.412047 -0.376101 -0.338367 -0.298843 -0.25753 -0.214428 -0.169537 -0.122856 -0.122149 -0.121183 -0.119957 -0.118473 -0.11673 -0.114728 -0.112467 -0.109946 -0.107167 -0.104129 -0.100832 -0.0972757 -0.0934605 -0.0893863 -0.0850532 -0.080461 -0.0756098 -0.0704997 -0.0651305 -0.0595024 -0.0607577 -0.0618885 -0.0628947 -0.0637762 -0.0645332 -0.0651656 -0.0656733 -0.0660565 -0.066315 -0.066449 -0.0664583 -0.066343 -0.0661032 -0.0657387 -0.0652496 -0.0646359 -0.0638976 -0.0630348 -0.0620473 -0.0609352 -0.0622253 -0.0634828 -0.0647079 -0.0659005 -0.0670606 -0.0681881 -0.0692832 -0.0703458 -0.0713758 -0.0723733 -0.0733384 -0.0742709 -0.0751709 -0.0760384 -0.0768735 -0.077676 -0.078446 -0.0791835 -0.0798884 -0.0805609 -0.0820723 -0.0835695 -0.0850526 -0.0865215 -0.0879763 -0.0894169 -0.0908433 -0.0922556 -0.0936538 -0.0950378 -0.0964077 -0.0977634 -0.0991049 -0.100432 -0.101746 -0.103045 -0.10433 -0.1056 -0.106857 -0.1081 -0.109487 -0.110872 -0.112254 -0.113634 -0.115011 -0.116385 -0.117757 -0.119127 -0.120493 -0.121857 -0.123219 -0.124578 -0.125934 -0.127288 -0.128639 -0.129988 -0.131334 -0.132677 -0.134018 -0.135356 -0.136723 -0.138087 -0.13945 -0.140811 -0.142169 -0.143526 -0.144881 -0.146234 -0.147585 -0.148934 -0.150281 -0.151626 -0.152969 -0.15431 -0.155649 -0.156986 -0.158321 -0.159655 -0.160986 -0.162315 -0.163562 -0.164799 -0.166025 -0.167241 -0.168446 -0.169641 -0.170826 -0.172 -0.173164 -0.174318 -0.175461 -0.176594 -0.177716 -0.178828 -0.179929 -0.181021 -0.182101 -0.183172 -0.184232 -0.185281 -0.18647 -0.187624 -0.188745 -0.189832 -0.190885 -0.191904 -0.19289 -0.193842 -0.19476 -0.195644 -0.196495 -0.197312 -0.198095 -0.198844 -0.199559 -0.200241 -0.200889 -0.201503 -0.202083 -0.20263 -0.204549 -0.206383 -0.20813 -0.209793 -0.211369 -0.21286 -0.214265 -0.215584 -0.216818 -0.217966 -0.219028 -0.220005 -0.220896 -0.221701 -0.222421 -0.223054 -0.223602 -0.224065 -0.224441 -0.224732 -0.845426 -0.824443 -0.802039 -0.778213 -0.752966 -0.726297 -0.698207 -0.668696 -0.637763 -0.605409 -0.571634 -0.536437 -0.499819 -0.46178 -0.422319 -0.381437 -0.339133 -0.295408 -0.250262 -0.203694 -0.155705 -0.154704 -0.153401 -0.151796 -0.149887 -0.147677 -0.145164 -0.142348 -0.13923 -0.135809 -0.132086 -0.128061 -0.123732 -0.119102 -0.114169 -0.108933 -0.103395 -0.0975545 -0.0914114 -0.0849658 -0.0782178 -0.0789896 -0.0796486 -0.0801947 -0.080628 -0.0809485 -0.0811561 -0.0812508 -0.0812327 -0.0811017 -0.0808579 -0.0805013 -0.0800317 -0.0794494 -0.0787542 -0.0779461 -0.0770252 -0.0759914 -0.0748448 -0.0735854 -0.0722131 -0.0733897 -0.0745271 -0.0756253 -0.0766842 -0.0777039 -0.0786843 -0.0796255 -0.0805275 -0.0813902 -0.0822137 -0.082998 -0.083743 -0.0844488 -0.0851154 -0.0857427 -0.0863308 -0.0868796 -0.0873892 -0.0878596 -0.0882907 -0.0896683 -0.0910324 -0.0923831 -0.0937204 -0.0950444 -0.0963549 -0.0976521 -0.0989358 -0.100206 -0.101463 -0.102707 -0.103937 -0.105154 -0.106357 -0.107547 -0.108724 -0.109887 -0.111037 -0.112173 -0.113296 -0.114591 -0.115883 -0.117171 -0.118455 -0.119737 -0.121014 -0.122289 -0.12356 -0.124828 -0.126092 -0.127353 -0.128611 -0.129865 -0.131116 -0.132364 -0.133608 -0.134848 -0.136086 -0.13732 -0.13855 -0.139822 -0.141093 -0.142361 -0.143628 -0.144894 -0.146158 -0.14742 -0.148681 -0.14994 -0.151197 -0.152453 -0.153707 -0.15496 -0.156211 -0.15746 -0.158708 -0.159954 -0.161199 -0.162442 -0.163683 -0.164844 -0.165995 -0.167137 -0.168269 -0.169392 -0.170505 -0.171608 -0.172702 -0.173786 -0.174861 -0.175926 -0.176981 -0.178027 -0.179063 -0.180089 -0.181106 -0.182114 -0.183111 -0.184099 -0.185078 -0.186208 -0.187306 -0.188371 -0.189405 -0.190407 -0.191376 -0.192314 -0.193219 -0.194092 -0.194934 -0.195743 -0.19652 -0.197265 -0.197978 -0.198659 -0.199308 -0.199925 -0.20051 -0.201062 -0.201583 -0.203555 -0.205444 -0.207251 -0.208976 -0.210618 -0.212178 -0.213655 -0.21505 -0.216363 -0.217593 -0.21874 -0.219806 -0.220788 -0.221689 -0.222507 -0.223242 -0.223896 -0.224466 -0.224955 -0.225361 -0.959152 -0.930581 -0.900958 -0.870284 -0.838559 -0.805782 -0.771955 -0.737076 -0.701146 -0.664165 -0.626133 -0.58705 -0.546915 -0.505729 -0.463492 -0.420204 -0.375865 -0.330475 -0.284033 -0.23654 -0.187996 -0.186731 -0.185119 -0.183161 -0.180857 -0.178207 -0.17521 -0.171867 -0.168178 -0.164142 -0.15976 -0.155032 -0.149958 -0.144537 -0.13877 -0.132657 -0.126198 -0.119392 -0.11224 -0.104742 -0.0968973 -0.0971986 -0.0973988 -0.097498 -0.0974962 -0.0973934 -0.0971895 -0.0968847 -0.0964788 -0.0959718 -0.0953639 -0.0946549 -0.0938449 -0.0929339 -0.0919219 -0.0908088 -0.0895948 -0.0882796 -0.0868635 -0.0853464 -0.0837282 -0.0847862 -0.0857981 -0.086764 -0.087684 -0.0885579 -0.0893858 -0.0901677 -0.0909036 -0.0915934 -0.0922373 -0.0928351 -0.093387 -0.0938928 -0.0943527 -0.0947665 -0.0951343 -0.0954561 -0.0957319 -0.0959616 -0.0961454 -0.0973876 -0.0986171 -0.099834 -0.101038 -0.10223 -0.103409 -0.104575 -0.105729 -0.10687 -0.107999 -0.109115 -0.110218 -0.111309 -0.112387 -0.113452 -0.114505 -0.115545 -0.116573 -0.117587 -0.11859 -0.119793 -0.120991 -0.122186 -0.123376 -0.124562 -0.125744 -0.126922 -0.128096 -0.129266 -0.130431 -0.131592 -0.132749 -0.133902 -0.135051 -0.136196 -0.137336 -0.138472 -0.139604 -0.140732 -0.141856 -0.143036 -0.144214 -0.145392 -0.146568 -0.147742 -0.148916 -0.150088 -0.151259 -0.152429 -0.153598 -0.154765 -0.155931 -0.157096 -0.158259 -0.159421 -0.160582 -0.161742 -0.162901 -0.164058 -0.165214 -0.166293 -0.167364 -0.168426 -0.169479 -0.170523 -0.171558 -0.172584 -0.173602 -0.174611 -0.175611 -0.176602 -0.177584 -0.178558 -0.179523 -0.180478 -0.181425 -0.182364 -0.183293 -0.184214 -0.185125 -0.1862 -0.187245 -0.188259 -0.189243 -0.190197 -0.19112 -0.192013 -0.192876 -0.193708 -0.19451 -0.195282 -0.196023 -0.196734 -0.197415 -0.198065 -0.198685 -0.199274 -0.199834 -0.200363 -0.200861 -0.202876 -0.204813 -0.20667 -0.208448 -0.210147 -0.211767 -0.213308 -0.21477 -0.216152 -0.217456 -0.21868 -0.219825 -0.220891 -0.221878 -0.222786 -0.223615 -0.224365 -0.225036 -0.225627 -0.226139 -1.05755 -1.0221 -0.98598 -0.949178 -0.911699 -0.87354 -0.834703 -0.795187 -0.754993 -0.71412 -0.672568 -0.630337 -0.587428 -0.543841 -0.499575 -0.45463 -0.409006 -0.362704 -0.315723 -0.268063 -0.219725 -0.218224 -0.216333 -0.214051 -0.211379 -0.208316 -0.204863 -0.20102 -0.196787 -0.192163 -0.187149 -0.181745 -0.17595 -0.169765 -0.16319 -0.156224 -0.148868 -0.141122 -0.132985 -0.124458 -0.115541 -0.115384 -0.115139 -0.114805 -0.114381 -0.113868 -0.113266 -0.112575 -0.111795 -0.110926 -0.109968 -0.10892 -0.107784 -0.106558 -0.105243 -0.103839 -0.102346 -0.100764 -0.0990928 -0.0973324 -0.0954828 -0.0964168 -0.097298 -0.0981264 -0.0989019 -0.0996246 -0.100294 -0.100912 -0.101476 -0.101987 -0.102446 -0.102851 -0.103204 -0.103504 -0.103752 -0.103946 -0.104088 -0.104177 -0.104213 -0.104196 -0.104126 -0.105231 -0.106325 -0.107407 -0.108476 -0.109534 -0.11058 -0.111615 -0.112637 -0.113647 -0.114646 -0.115633 -0.116608 -0.117571 -0.118522 -0.119461 -0.120389 -0.121304 -0.122208 -0.1231 -0.12398 -0.125092 -0.126199 -0.127301 -0.128398 -0.12949 -0.130577 -0.131659 -0.132736 -0.133808 -0.134875 -0.135937 -0.136994 -0.138047 -0.139094 -0.140136 -0.141174 -0.142206 -0.143233 -0.144256 -0.145273 -0.146364 -0.147453 -0.148542 -0.149629 -0.150716 -0.151802 -0.152887 -0.153971 -0.155054 -0.156136 -0.157218 -0.158298 -0.159378 -0.160456 -0.161534 -0.162611 -0.163687 -0.164762 -0.165836 -0.166909 -0.167912 -0.168906 -0.169892 -0.17087 -0.17184 -0.172802 -0.173756 -0.174702 -0.17564 -0.17657 -0.177491 -0.178405 -0.179311 -0.180209 -0.181098 -0.18198 -0.182853 -0.183719 -0.184576 -0.185426 -0.18645 -0.187445 -0.188412 -0.18935 -0.190259 -0.19114 -0.191992 -0.192816 -0.193611 -0.194377 -0.195115 -0.195824 -0.196504 -0.197156 -0.197779 -0.198374 -0.19894 -0.199478 -0.199986 -0.200467 -0.202517 -0.204491 -0.206389 -0.208212 -0.209959 -0.21163 -0.213226 -0.214745 -0.216189 -0.217557 -0.21885 -0.220066 -0.221207 -0.222272 -0.223261 -0.224174 -0.225012 -0.225774 -0.22646 -0.22707 -1.14046 -1.09887 -1.05697 -1.01477 -0.972268 -0.929459 -0.886347 -0.842932 -0.799212 -0.755189 -0.710862 -0.666231 -0.621297 -0.576059 -0.530517 -0.484671 -0.438522 -0.392068 -0.345311 -0.298251 -0.250886 -0.249178 -0.247036 -0.244459 -0.241447 -0.238001 -0.23412 -0.229804 -0.225054 -0.219869 -0.214249 -0.208195 -0.201706 -0.194783 -0.187424 -0.179632 -0.171404 -0.162742 -0.153645 -0.144114 -0.134148 -0.133547 -0.132869 -0.132115 -0.131283 -0.130373 -0.129387 -0.128324 -0.127183 -0.125965 -0.124671 -0.123299 -0.121849 -0.120323 -0.11872 -0.117039 -0.115281 -0.113447 -0.111535 -0.109546 -0.107479 -0.108284 -0.109029 -0.109714 -0.11034 -0.110906 -0.111412 -0.111859 -0.112246 -0.112573 -0.112841 -0.113049 -0.113197 -0.113285 -0.113314 -0.113283 -0.113193 -0.113043 -0.112833 -0.112563 -0.112234 -0.113201 -0.114157 -0.115102 -0.116036 -0.116958 -0.11787 -0.118771 -0.11966 -0.120538 -0.121406 -0.122262 -0.123107 -0.123941 -0.124764 -0.125576 -0.126377 -0.127166 -0.127945 -0.128713 -0.129469 -0.13049 -0.131506 -0.132516 -0.13352 -0.134519 -0.135511 -0.136498 -0.13748 -0.138455 -0.139425 -0.140388 -0.141347 -0.142299 -0.143246 -0.144186 -0.145122 -0.146051 -0.146974 -0.147892