<?xml version="1.0"?> 
<VTKFile type="StructuredGrid" version="0.1"> 
<StructuredGrid WholeExtent="0 100 0 50 0 0"> 
<Piece Extent="0 100 0 50 0 0"> 
<PointData Scalars="Temperature">
<DataArray type="Float32" Name="Temperature" format="ascii" NumberOfComponents="1"> 
8.18899 7.89257 7.61505 7.35933 7.1283 6.92478 6.75144 6.61073 6.50481 6.4355 6.40423 6.41194 6.45909 7.00583 8.00754 8.98389 9.92886 10.837 11.7034 12.5239 13.2952 14.0146 14.6804 15.2915 15.8474 16.3485 15.9447 15.4047 14.7227 13.8942 12.9162 11.7872 10.5079 9.08051 7.5096 5.80168 3.96526 2.01075 0.239763 -1.17812 -2.47116 -3.63257 -4.65741 -5.54263 -6.28705 -6.89129 -7.35766 -7.68996 -7.89335 -7.97406 -7.93923 -7.97392 -7.89311 -7.68967 -7.35734 -6.891 -6.28684 -5.54254 -4.6575 -3.63288 -2.47175 -1.17904 0.238478 2.01041 3.96677 5.80441 7.51294 9.08382 10.5106 11.7887 12.9159 13.8917 14.7174 15.3962 15.9327 16.3326 15.8517 15.3112 14.7105 14.0495 13.329 12.5504 11.7163 10.8298 9.89494 8.91662 7.90038 6.85244 6.30474 6.30235 6.33363 6.39794 6.49423 6.62108 6.77671 6.95909 7.16597 7.39493 7.64345 7.90899 8.18899 9.3537 8.98971 8.65797 8.36261 8.10764 7.8969 7.73396 7.62197 7.56363 7.56107 7.61576 7.72848 7.89924 8.70783 10.0863 11.4244 12.7139 13.9475 15.1187 16.2222 17.2535 18.2094 19.088 19.888 20.6094 21.2531 20.7203 20.017 19.136 18.0719 16.8212 15.3822 13.7558 11.9452 9.95614 7.79698 5.47858 3.01409 0.809373 -0.924956 -2.50357 -3.91822 -5.16298 -6.23422 -7.13068 -7.85329 -8.40508 -8.79092 -9.01733 -9.09217 -9.02441 -9.092 -9.01703 -8.79054 -8.40468 -7.85293 -7.13041 -6.23411 -5.16309 -3.91862 -2.50431 -0.926109 0.807749 3.01367 5.48049 7.80044 9.96035 11.9494 13.7592 15.3841 16.8209 18.0688 19.1293 20.0063 20.7051 21.233 20.6148 19.9129 19.1259 18.2535 17.2961 16.2557 15.1351 13.9385 12.6711 11.3394 9.9509 8.51399 7.70419 7.59 7.52655 7.51361 7.55027 7.63505 7.76588 7.94026 8.15524 8.40759 8.69386 9.01045 9.3537 10.5184 10.0868 9.7009 9.36589 9.08698 8.86903 8.71647 8.63321 8.62246 8.68664 8.8273 9.04502 9.33938 10.4098 12.1651 13.8649 15.499 17.0581 18.5341 19.9204 21.2117 22.4042 23.4955 24.4846 25.3715 26.1577 25.4959 24.6292 23.5493 22.2497 20.7263 18.9773 17.0038 14.8099 12.4027 9.79229 6.99189 4.01743 1.37898 -0.671789 -2.53597 -4.20387 -5.66854 -6.92581 -7.97431 -8.81529 -9.4525 -9.89187 -10.1413 -10.2103 -10.1096 -10.2101 -10.1409 -9.89142 -9.45202 -8.81486 -7.97399 -6.92568 -5.66867 -4.20435 -2.53687 -0.673183 1.37702 4.01692 6.99421 9.79647 12.4078 14.815 17.0079 18.9795 20.7259 22.2459 23.5413 24.6163 25.4776 26.1334 25.378 24.5147 23.5414 22.4574 21.2633 19.961 18.5539 17.0471 15.4472 13.7622 12.0014 10.1756 9.10364 8.87765 8.71947 8.62927 8.60631 8.64902 8.75506 8.92142 9.14451 9.42026 9.74428 10.1119 10.5184 11.6831 11.184 10.7438 10.3692 10.0663 9.84115 9.69899 9.64445 9.68129 9.81221 10.0388 10.3616 10.7795 12.1118 14.2439 16.3054 18.2841 20.1686 21.9495 23.6187 25.17 26.599 27.9031 29.0811 30.1335 31.0623 30.2715 29.2415 27.9626 26.4275 24.6313 22.5723 20.2518 17.6746 14.8492 11.7876 8.50521 5.02077 1.94859 -0.418622 -2.56838 -4.48953 -6.1741 -7.61741 -8.81794 -9.77729 -10.4999 -10.9928 -11.2653 -11.3284 -11.1948 -11.3282 -11.2649 -10.9923 -10.4994 -9.77678 -8.81756 -7.61725 -6.17426 -4.49009 -2.56943 -0.420256 1.94629 5.02018 8.50793 11.7925 14.8552 17.6805 20.2566 22.575 24.6309 26.423 27.9532 29.2264 30.25 31.0337 30.1412 29.1164 27.9569 26.6614 25.2305 23.6662 21.9727 20.1558 18.2233 16.185 14.0519 11.8371 10.5031 10.1653 9.91239 9.74494 9.66235 9.66299 9.74424 9.90259 10.1338 10.4329 10.7947 11.2134 11.6831 12.8478 12.2811 11.7867 11.3725 11.0457 10.8133 10.6815 10.6557 10.7401 10.9378 11.2504 11.6781 12.2197 13.8138 16.3226 18.746 21.0692 23.2792 25.3648 27.3169 29.1283 30.7938 32.3106 33.6776 34.8956 35.9669 35.0471 33.8538 32.3759 30.6053 28.5364 26.1673 23.4997 20.5393 17.2958 13.7829 10.0185 6.02411 2.5182 -0.165455 -2.60078 -4.77518 -6.67967 -8.309 -9.66157 -10.7393 -11.5473 -12.0938 -12.3893 -12.4465 -12.2799 -12.4462 -12.3888 -12.0932 -11.5467 -10.7387 -9.66114 -8.30882 -6.67985 -4.77582 -2.60199 -0.16733 2.51556 6.02343 10.0216 13.7885 17.3026 20.5461 23.5053 26.1704 28.5359 30.6001 32.3651 33.8364 35.0225 35.9341 34.9044 33.7182 32.3724 30.8654 29.1976 27.3715 25.3915 23.2645 20.9995 18.6077 16.1025 13.4987 11.9025 11.4529 11.1053 10.8606 10.7184 10.677 10.7334 10.8838 11.123 11.4456 11.8451 12.3148 12.8478 14.0125 13.3782 12.8297 12.3757 12.025 11.7854 11.664 11.6669 11.7989 12.0633 12.4619 12.9947 13.6598 15.5158 18.4014 21.1865 23.8542 26.3897 28.7802 31.0152 33.0865 34.9886 36.7182 38.2742 39.6576 40.8714 39.8227 38.4661 36.7893 34.783 32.4414 29.7623 26.7477 23.404 19.7423 15.7782 11.5319 7.02746 3.08781 0.0877119 -2.63319 -5.06083 -7.18523 -9.00059 -10.5052 -11.7013 -12.5948 -13.1947 -13.5132 -13.5646 -13.3651 -13.5643 -13.5127 -13.1941 -12.594 -11.7006 -10.5047 -9.00039 -7.18544 -5.06155 -2.63455 0.0855968 3.08483 7.02669 11.5354 15.7846 19.75 23.4117 26.7539 29.7658 32.4408 34.7772 36.7771 38.4465 39.7949 40.8345 39.6675 38.3199 36.7878 35.0694 33.1648 31.0767 28.8103 26.3731 23.7756 21.0305 18.153 15.1602 13.302 12.7406 12.2982 11.9763 11.7744 11.6909 11.7226 11.8649 12.1123 12.4583 12.8955 13.4163 14.0125 15.1772 14.4754 13.8726 13.379 13.0043 12.7575 12.6465 12.6782 12.8578 13.1889 13.6734 14.3112 15.1 17.2178 20.4802 23.627 26.6393 29.5003 32.1956 34.7134 37.0448 39.1834 41.1258 42.8707 44.4197 45.776 44.5983 43.0783 41.2026 38.9608 36.3465 33.3573 29.9956 26.2687 22.1888 17.7735 13.0452 8.0308 3.65742 0.340879 -2.66559 -5.34648 -7.6908 -9.69218 -11.3488 -12.6633 -13.6422 -14.2957 -14.6372 -14.6827 -14.4503 -14.6824 -14.6366 -14.2949 -13.6414 -12.6626 -11.3483 -9.69196 -7.69102 -5.34729 -2.66711 0.338523 3.6541 8.02994 13.0491 17.7806 22.1974 26.2772 30.0026 33.3612 36.3458 38.9543 41.189 43.0565 44.5673 45.7349 44.4307 42.9217 41.2033 39.2734 37.132 34.782 32.229 29.4818 26.5517 23.4533 20.2035 16.8218 14.7015 14.0282 13.4912 13.0919 12.8305 12.7049 12.7118 12.8461 13.1016 13.4709 13.9459 14.5178 15.1772 16.3419 15.5725 14.9155 14.3823 13.9837 13.7296 13.629 13.6894 13.9166 14.3145 14.885 15.6277 16.5401 18.9199 22.559 26.0675 29.4244 32.6109 35.611 38.4117 41.0031 43.3782 45.5333 47.4673 49.1817 50.6806 49.3739 47.6906 45.6159 43.1386 40.2516 36.9523 33.2436 29.1334 24.6354 19.7688 14.5585 9.03414 4.22703 0.594046 -2.698 -5.63213 -8.19636 -10.3838 -12.1925 -13.6253 -14.6896 -15.3966 -15.7612 -15.8009 -15.5355 -15.8005 -15.7605 -15.3958 -14.6887 -13.6245 -12.1919 -10.3835 -8.19661 -5.63302 -2.69967 0.59145 4.22338 9.03319 14.5628 19.7766 24.6449 29.1428 33.2513 36.9566 40.2508 43.1314 45.6009 47.6666 49.3398 50.6353 49.1939 47.5234 45.6188 43.4773 41.0991 38.4872 35.6478 32.5904 29.3279 25.8761 22.254 18.4833 16.1009 15.3159 14.6841 14.2076 13.8865 13.7189 13.7009 13.8273 14.0909 14.4836 14.9963 15.6192 16.3419 17.5066 16.6696 15.9584 15.3856 14.963 14.7018 14.6116 14.7007 14.9754 15.4401 16.0965 16.9443 17.9803 20.6219 24.6378 28.508 32.2095 35.7214 39.0263 42.1099 44.9613 47.573 49.9409 52.0638 53.9438 55.5852 54.1495 52.3029 50.0292 47.3164 44.1566 40.5474 36.4916 31.9981 27.0819 21.7641 16.0718 10.0375 4.79664 0.847213 -2.7304 -5.91778 -8.70193 -11.0754 -13.0361 -14.5873 -15.737 -16.4976 -16.8852 -16.919 -16.6207 -16.9185 -16.8844 -16.4967 -15.736 -14.5864 -13.0354 -11.0751 -8.7022 -5.91875 -2.73223 0.844376 4.79265 10.0364 16.0765 21.7726 27.0923 32.0084 36.4999 40.552 44.1558 47.3085 50.0129 52.2766 54.1122 55.5357 53.9571 52.1252 50.0343 47.6813 45.0663 42.1925 39.0666 35.6991 32.104 28.2989 24.3046 20.1449 17.5004 16.6035 15.877 15.3233 14.9425 14.7328 14.6901 14.8084 15.0801 15.4963 16.0467 16.7207 17.5066 18.6713 17.7668 17.0014 16.3889 15.9424 15.6739 15.5941 15.7119 16.0342 16.5656 17.3081 18.2608 19.4204 22.3239 26.7165 30.9486 34.9945 38.832 42.4417 45.8082 48.9196 51.7678 54.3484 56.6604 58.7058 60.4898 58.9251 56.9152 54.4425 51.4941 48.0617 44.1424 39.7395 34.8628 29.5284 23.7594 17.5851 11.0408 5.36625 1.10038 -2.76281 -6.20343 -9.20749 -11.767 -13.8797 -15.5493 -16.7844 -17.5986 -18.0092 -18.0371 -17.7058 -18.0366 -18.0084 -17.5976 -16.7834 -15.5483 -13.879 -11.7667 -9.20779 -6.20449 -2.76479 1.0973 5.36192 11.0397 17.5902 23.7687 29.5397 34.874 39.7486 44.1474 48.0608 51.4856 54.4248 56.8867 58.8846 60.4361 58.7202 56.7269 54.4497 51.8853 49.0335 45.8977 42.4854 38.8078 34.8801 30.7216 26.3551 21.8065 18.8998 17.8912 17.0699 16.4389 15.9986 15.7468 15.6793 15.7896 16.0694 16.5089 17.0972 17.8221 18.6713 19.836 18.8639 18.0443 17.3921 16.9217 16.646 16.5766 16.7232 17.0931 17.6912 18.5196 19.5774 20.8606 24.0259 28.7953 33.3891 37.7796 41.9425 45.8571 49.5064 52.8779 55.9626 58.756 61.2569 63.4679 65.3944 63.7007 61.5274 58.8558 55.6719 51.9667 47.7374 42.9875 37.7275 31.975 25.7547 19.0984 12.0442 5.93586 1.35355 -2.79521 -6.48908 -9.71305 -12.4586 -14.7234 -16.5113 -17.8319 -18.6995 -19.1331 -19.1552 -18.791 -19.1547 -19.1323 -18.6984 -17.8307 -16.5103 -14.7226 -12.4582 -9.71337 -6.49022 -2.79735 1.35023 5.93119 12.043 19.104 25.7647 31.9871 37.7395 42.9973 47.7428 51.9658 55.6627 58.8367 61.4967 63.6571 65.3365 63.4834 61.3287 58.8652 56.0893 53.0007 49.603 45.9042 41.9164 37.6563 33.1444 28.4056 23.468 20.2993 19.1788 18.2629 17.5546 17.0546 16.7608 16.6685 16.7707 17.0587 17.5216 18.1476 18.9236 19.836 21.0008 19.961 19.0872 18.3954 17.901 17.6181 17.5591 17.7344 18.1519 18.8168 19.7311 20.8939 22.3007 25.7279 30.8741 35.8296 40.5647 45.0531 49.2724 53.2047 56.8361 60.1574 63.1635 65.8535 68.2299 70.299 68.4763 66.1397 63.2692 59.8497 55.8718 51.3324 46.2354 40.5922 34.4215 27.7501 20.6118 13.0475 6.50547 1.60671 -2.82762 -6.77474 -10.2186 -13.1501 -15.567 -17.4733 -18.8793 -19.8005 -20.2571 -20.2733 -19.8762 -20.2728 -20.2562 -19.7993 -18.878 -17.4722 -15.5662 -13.1498 -10.219 -6.77595 -2.82991 1.60316 6.50046 13.0462 20.6177 27.7607 34.4345 40.6051 46.2459 51.3382 55.8708 59.8398 63.2486 66.1068 68.4295 70.2369 68.2466 65.9304 63.2807 60.2933 56.9678 53.3082 49.323 45.0251 40.4324 35.5672 30.4561 25.1296 21.6987 20.4665 19.4558 18.6703 18.1107 17.7748 17.6577 17.7519 18.0479 18.5343 19.198 20.0251 21.0008 22.1655 21.0582 20.1301 19.3987 18.8804 18.5902 18.5416 18.7456 19.2107 19.9423 20.9427 22.2105 23.7409 27.4299 32.9529 38.2701 43.3498 48.1636 52.6878 56.903 60.7944 64.3522 67.5711 70.45 72.992 75.2036 73.2519 70.752 67.6825 64.0274 59.7768 54.9274 49.4834 43.4569 36.868 29.7454 22.1251 14.0508 7.07508 1.85988 -2.86002 -7.06039 -10.7242 -13.8417 -16.4106 -18.4353 -19.9267 -20.9014 -21.3811 -21.3914 -20.9614 -21.3909 -21.3801 -20.9002 -19.9254 -18.4341 -16.4097 -13.8414 -10.7245 -7.06169 -2.86247 1.85608 7.06973 14.0495 22.1314 29.7568 36.8819 43.4707 49.4946 54.9336 59.7758 64.017 67.6606 70.7168 73.2019 75.1373 73.0098 70.5322 67.6962 64.4973 60.935 57.0135 52.7418 48.1338 43.2085 37.99 32.5067 26.7911 23.0982 21.7541 20.6487 19.7859 19.1667 18.7887 18.6468 18.7331 19.0372 19.5469 20.2484 21.1265 22.1655 23.3302 22.1553 21.1731 20.402 19.8597 19.5624 19.5241 19.7569 20.2695 21.0679 22.1542 23.527 25.181 29.1319 35.0316 40.7106 46.1348 51.2742 56.1032 60.6012 64.7527 68.547 71.9786 75.0465 77.754 80.1082 78.0275 75.3642 72.0958 68.2052 63.6819 58.5224 52.7314 46.3216 39.3146 31.7407 23.6384 15.0542 7.64469 2.11305 -2.89243 -7.34604 -11.2297 -14.5333 -17.2542 -19.3973 -20.9741 -22.0024 -22.5051 -22.5095 -22.0466 -22.5089 -22.504 -22.0011 -20.9727 -19.396 -17.2533 -14.5329 -11.2301 -7.34742 -2.89503 2.10901 7.639 15.0527 23.6451 31.7528 39.3294 46.3362 52.7433 58.5291 63.6808 68.1941 72.0725 75.3269 77.9744 80.0376 77.7729 75.1339 72.1116 68.7012 64.9022 60.7188 56.1606 51.2424 45.9847 40.4128 34.5572 28.4527 24.4976 23.0418 21.8416 20.9016 20.2227 19.8027 19.636 19.7142 20.0265 20.5596 21.2988 22.228 23.3302 24.4949 23.2524 22.216 21.4053 20.839 20.5345 20.5067 20.7681 21.3284 22.1935 23.3657 24.8435 26.6211 30.8339 37.1104 43.1512 48.9199 54.3847 59.5186 64.2995 68.7109 72.7418 76.3862 79.6431 82.5161 85.0127 82.8032 79.9765 76.5091 72.383 67.5869 62.1175 55.9793 49.1863 41.7611 33.736 25.1517 16.0575 8.2143 2.36622 -2.92483 -7.63169 -11.7353 -15.2249 -18.0979 -20.3593 -22.0215 -23.1033 -23.629 -23.6276 -23.1317 -23.627 -23.6279 -23.1019 -22.0201 -20.358 -18.0969 -15.2245 -11.7357 -7.63316 -2.92759 2.36194 8.20827 16.056 25.1588 33.7488 41.7768 49.2018 55.992 62.1245 67.5858 72.3712 76.4844 79.9369 82.7468 84.938 82.5361 79.7356 76.5271 72.9052 68.8693 64.424 59.5793 54.3511 48.7608 42.8356 36.6077 30.1143 25.8971 24.3294 23.0345 22.0173 21.2788 20.8167 20.6252 20.6954 21.0157 21.5723 22.3492 23.3295 24.4949 25.6596 24.3496 23.2589 22.4085 21.8184 21.5066 21.4892 21.7794 22.3872 23.319 24.5773 26.1601 28.0613 32.5359 39.1892 45.5917 51.705 57.4953 62.9339 67.9977 72.6692 76.9366 80.7937 84.2396 87.2781 89.9173 87.5788 84.5888 80.9224 76.5608 71.492 65.7125 59.2273 52.0509 44.2077 35.7313 26.665 17.0609 8.78391 2.61938 -2.95724 -7.91734 -12.2409 -15.9165 -18.9415 -21.3213 -23.0689 -24.2043 -24.753 -24.7458 -24.2169 -24.7451 -24.7519 -24.2028 -23.0674 -21.3199 -18.9405 -15.9161 -12.2413 -7.91889 -2.96015 2.61486 8.77755 17.0592 26.6726 35.7449 44.2242 52.0674 59.2406 65.7199 71.4907 76.5483 80.8964 84.547 87.5193 89.8384 87.2993 84.3374 80.9426 77.1092 72.8365 68.1293 62.9981 57.4598 51.5369 45.2583 38.6582 31.7758 27.2965 25.6171 24.2275 23.1329 22.3348 21.8306 21.6144 21.6766 22.005 22.5849 23.3996 24.4309 25.6596 26.8243 25.4467 24.3018 23.4118 22.7977 22.4787 22.4717 22.7906 23.446 24.4446 25.7888 27.4766 29.5014 34.2379 41.268 48.0322 54.4901 60.6059 66.3493 71.696 76.6275 81.1314 85.2013 88.8362 92.0402 94.8219 92.3544 89.2011 85.3358 80.7385 75.3971 69.3075 62.4752 54.9156 46.6542 37.7266 28.1784 18.0642 9.35352 2.87255 -2.98964 -8.20299 -12.7464 -16.6081 -19.7851 -22.2833 -24.1164 -25.3052 -25.877 -25.8639 -25.3021 -25.8632 -25.8758 -25.3037 -24.1147 -22.2818 -19.784 -16.6077 -12.7469 -8.20462 -2.99271 2.86779 9.34682 18.0625 28.1863 37.7409 46.6716 54.9329 62.4893 69.3153 75.3957 80.7254 85.3083 89.157 92.2917 94.7388 92.0625 88.9391 85.3581 81.3132 76.8037 71.8345 66.4169 60.5684 54.3131 47.6811 40.7087 33.4374 28.696 26.9047 25.4204 24.2486 23.3908 22.8446 22.6035 22.6577 22.9943 23.5976 24.45 25.5324 26.8243 27.989 26.5438 25.3447 24.4151 23.7771 23.4508 23.4542 23.8019 24.5048 25.5702 27.0004 28.7932 30.9416 35.9399 43.3467 50.4727 57.2751 63.7164 69.7647 75.3942 80.5857 85.3262 89.6088 93.4327 96.8022 99.7265 97.13 93.8133 89.7491 84.9163 79.3021 72.9025 65.7232 57.7803 49.1007 39.7219 29.6917 19.0676 9.92313 3.12572 -3.02205 -8.48864 -13.252 -17.2997 -20.6288 -23.2453 -25.1638 -26.4062 -27.001 -26.982 -26.3873 -26.9812 -26.9997 -26.4046 -25.1621 -23.2437 -20.6276 -17.2992 -13.2525 -8.49036 -3.02527 3.12072 9.91609 19.0657 29.7 39.7369 49.119 57.7985 65.738 72.9107 79.3007 84.9025 89.7202 93.7671 97.0641 99.6392 96.8256 93.5409 89.7735 85.5172 80.7708 75.5398 69.8357 63.6771 57.0892 50.1039 42.7593 35.0989 30.0954 28.1924 26.6133 25.3643 24.4469 23.8586 23.5927 23.6389 23.9836 24.6103 25.5005 26.6338 27.989 29.1537 27.641 26.3877 25.4184 24.7564 24.423 24.4367 24.8131 25.5637 26.6957 28.2119 30.1097 32.3817 37.6419 45.4255 52.9132 60.0602 66.827 73.18 79.0925 84.544 89.521 94.0164 98.0293 101.564 104.631 101.906 98.4256 94.1624 89.0941 83.2072 76.4975 68.9712 60.645 51.5473 41.7172 31.205 20.0709 10.4927 3.37888 -3.05445 -8.77429 -13.7576 -17.9913 -21.4724 -24.2073 -26.2112 -27.5072 -28.125 -28.1001 -27.4725 -28.0993 -28.1236 -27.5054 -26.2094 -24.2057 -21.4712 -17.9908 -13.7581 -8.77609 -3.05783 3.37364 10.4854 20.069 31.2137 41.7329 51.5664 60.6641 68.9866 76.5061 83.2057 89.0796 94.1322 98.3771 101.837 104.54 101.589 98.1426 94.189 89.7211 84.738 79.245 73.2545 66.7858 59.8653 52.5267 44.8098 36.7605 31.4949 29.48 27.8062 26.4799 25.5029 24.8726 24.5819 24.6201 24.9728 25.6229 26.5509 27.7353 29.1537 30.3184 28.7381 27.4306 26.4217 25.7357 25.3951 25.4192 25.8243 26.6225 27.8213 29.4234 31.4263 33.8219 39.3439 47.5043 55.3538 62.8453 69.9375 76.5954 82.7907 88.5023 93.7158 98.4239 102.626 106.326 109.536 106.681 103.038 98.5757 93.2718 87.1122 80.0925 72.2191 63.5097 53.9938 43.7125 32.7183 21.0742 11.0624 3.63205 -3.08686 -9.05994 -14.2631 -18.6829 -22.316 -25.1693 -27.2586 -28.6081 -29.2489 -29.2182 -28.5576 -29.2174 -29.2475 -28.6063 -27.2567 -25.1676 -22.3148 -18.6824 -14.2637 -9.06182 -3.09039 3.62657 11.0546 21.0722 32.7274 43.729 54.0139 63.5297 72.2353 80.1015 87.1107 93.2567 98.5441 102.987 106.609 109.44 106.352 102.744 98.6045 93.9251 88.7052 82.9503 76.6733 69.8944 62.6415 54.9495 46.8603 38.4221 32.8943 30.7677 28.9992 27.5956 26.559 25.8865 25.5711 25.6012 25.9621 26.6356 27.6013 28.8368 30.3184 31.4831 29.8352 28.4735 27.425 26.7151 26.3672 26.4018 26.8356 27.6813 28.9469 30.635 32.7428 35.262 41.0459 49.5831 57.7943 65.6304 73.0481 80.0108 86.489 92.4605 97.9106 102.832 107.222 111.088 114.44 111.457 107.65 102.989 97.4496 91.0173 83.6875 75.4671 66.3744 56.4403 45.7078 34.2316 22.0776 11.632 3.88522 -3.11926 -9.3456 -14.7687 -19.3745 -23.1597 -26.1313 -28.306 -29.7091 -30.3729 -30.3363 -29.6428 -30.3355 -30.3714 -29.7072 -28.3041 -26.1295 -23.1583 -19.3739 -14.7692 -9.34756 -3.12295 3.87949 11.6239 22.0755 34.2411 45.725 56.4613 66.3952 75.484 83.6969 91.0157 97.4338 102.956 107.597 111.381 114.34 111.115 107.346 103.02 98.1291 92.6723 86.6555 80.0921 73.0031 65.4176 57.3722 48.9108 40.0836 34.2938 32.0553 30.1921 28.7112 27.615 26.9005 26.5602 26.5824 26.9514 27.6483 28.6517 29.9382 31.4831 32.6478 30.9324 29.5164 28.4282 27.6944 27.3393 27.3843 27.8468 28.7402 30.0725 31.8465 34.0593 36.7022 42.7479 51.6618 60.2348 68.4154 76.1586 83.4262 90.1872 96.4188 102.105 107.239 111.819 115.85 119.345 116.232 112.262 107.402 101.627 94.9223 87.2826 78.715 69.2391 58.8869 47.7031 35.745 23.0809 12.2016 4.13839 -3.15167 -9.63125 -15.2743 -20.0661 -24.0033 -27.0933 -29.3535 -30.81 -31.4969 -31.4544 -30.728 -31.4535 -31.4954 -30.8081 -29.3514 -27.0914 -24.0019 -20.0655 -15.2748 -9.63329 -3.15551 4.13242 12.1932 23.0788 35.7549 47.721 58.9087 69.2608 78.7327 87.2923 94.9207 101.611 107.368 112.207 116.154 119.241 115.878 111.948 107.435 102.333 96.6395 90.3608 83.5109 76.1118 68.1937 59.795 50.9614 41.7452 35.6932 33.343 31.385 29.8269 28.671 27.9145 27.5494 27.5636 27.9406 28.6609 29.7021 31.0397 32.6478 33.8125 32.0295 30.5594 29.4315 28.6738 28.3114 28.3668 28.8581 29.799 31.198 33.058 35.3759 38.1423 44.4499 53.7406 62.6753 71.2005 79.2692 86.8415 93.8855 100.377 106.3 111.647 116.415 120.612 124.249 121.008 116.875 111.816 105.805 98.8274 90.8776 81.963 72.1038 61.3334 49.6984 37.2583 24.0843 12.7712 4.39155 -3.18407 -9.9169 -15.7798 -20.7577 -24.8469 -28.0553 -30.4009 -31.911 -32.6209 -32.5726 -31.8132 -32.5716 -32.6193 -31.909 -30.3988 -28.0534 -24.8455 -20.7571 -15.7804 -9.91902 -3.18807 4.38535 12.7624 24.082 37.2686 49.7171 61.3561 72.1264 81.9813 90.8877 98.8257 105.788 111.78 116.817 120.926 124.141 120.642 116.55 111.851 106.537 100.607 94.0661 86.9296 79.2204 70.9699 62.2178 53.0119 43.4067 37.0927 34.6306 32.5779 30.9426 29.7271 28.9284 28.5386 28.5447 28.9299 29.6736 30.7525 32.1411 33.8125 34.9772 33.1266 31.6023 30.4348 29.6531 29.2836 29.3493 29.8693 30.8578 32.3236 34.2696 36.6924 39.5825 46.1519 55.8194 65.1158 73.9856 82.3797 90.2569 97.5838 104.335 110.495 116.054 121.012 125.375 129.154 125.784 121.487 116.229 109.983 102.732 94.4726 85.211 74.9685 63.78 51.6937 38.7716 25.0876 13.3408 4.64472 -3.21648 -10.2025 -16.2854 -21.4492 -25.6905 -29.0173 -31.4483 -33.0119 -33.7449 -33.6907 -32.8984 -33.6897 -33.7432 -33.0098 -31.4461 -29.0153 -25.6891 -21.4486 -16.286 -10.2048 -3.22063 4.63827 13.3317 25.0853 38.7823 51.7131 63.8035 74.9919 85.23 94.4832 102.731 109.965 116.192 121.427 125.699 129.042 125.405 121.151 116.266 110.741 104.574 97.7713 90.3484 82.3291 73.746 64.6406 55.0624 45.0683 38.4921 35.9183 33.7708 32.0582 30.7831 29.9424 29.5278 29.5259 29.9192 30.6863 31.8029 33.2426 34.9772 36.1419 34.2238 32.6452 31.4381 30.6324 30.2557 30.3318 30.8806 31.9166 33.4492 35.4811 38.009 41.0226 47.8539 57.8982 67.5563 76.7707 85.4903 93.6723 101.282 108.294 114.69 120.462 125.609 130.137 134.059 130.559 126.099 120.642 114.161 106.638 98.0676 88.4589 77.8332 66.2265 53.689 40.2849 26.091 13.9104 4.89789 -3.24888 -10.4882 -16.791 -22.1408 -26.5342 -29.9793 -32.4957 -34.1129 -34.8688 -34.8088 -33.9835 -34.8078 -34.8671 -34.1107 -32.4934 -29.9772 -26.5326 -22.1402 -16.7916 -10.4905 -3.25319 4.8912 13.901 26.0885 40.296 53.7091 66.2509 77.8575 88.4787 98.0786 106.636 114.142 120.604 126.037 130.471 133.942 130.168 125.753 120.682 114.945 108.541 101.477 93.7672 85.4378 76.5221 67.0634 57.1129 46.7298 39.8916 37.2059 34.9638 33.1739 31.8391 30.9564 30.517 30.5071 30.9084 31.6989 32.8533 34.3441 36.1419 37.3066 35.3209 33.6881 32.4414 31.6118 31.2278 31.3143 31.8918 32.9755 34.5747 36.6927 39.3255 42.4628 49.5559 59.977 69.9969 79.5557 88.6008 97.0876 104.98 112.252 118.885 124.869 130.205 134.899 138.963 135.335 130.712 125.056 118.338 110.543 101.663 91.7069 80.6979 68.673 55.6844 41.7982 27.0943 14.48 5.15105 -3.28129 -10.7739 -17.2965 -22.8324 -27.3778 -30.9413 -33.5431 -35.2138 -35.9928 -35.9269 -35.0687 -35.9259 -35.991 -35.2116 -33.5408 -30.9391 -27.3762 -22.8318 -17.2972 -10.7762 -3.28575 5.14413 14.4703 27.0918 41.8097 55.7051 68.6984 80.7231 91.7273 101.674 110.541 118.319 125.016 130.647 135.244 138.842 134.931 130.355 125.097 119.149 112.508 105.182 97.186 88.5464 79.2983 69.4862 59.1634 48.3914 41.291 38.4936 36.1567 34.2896 32.8952 31.9704 31.5061 31.4882 31.8977 32.7116 33.9038 35.4455 37.3066 38.4713 36.418 34.7311 33.4446 32.5911 32.1999 32.2968 32.903 34.0343 35.7003 37.9042 40.6421 43.9029 51.2579 62.0557 72.4374 82.3408 91.7114 100.503 108.679 116.21 123.079 129.277 134.802 139.661 143.868 140.11 135.324 129.469 122.516 114.448 105.258 94.9548 83.5626 71.1196 57.6797 43.3115 28.0976 15.0496 5.40422 -3.31369 -11.0595 -17.8021 -23.524 -28.2214 -31.9033 -34.5906 -36.3148 -37.1168 -37.045 -36.1539 -37.0439 -37.1149 -36.3125 -34.5881 -31.9011 -28.2198 -23.5233 -17.8028 -11.062 -3.31831 5.39705 15.0395 28.095 43.3235 57.7012 71.1458 83.5886 94.976 105.269 114.446 122.496 129.428 135.258 140.016 143.743 139.694 134.957 129.513 123.353 116.475 108.887 100.605 91.6551 82.0744 71.9089 61.214 50.053 42.6905 39.7812 37.3496 35.4052 33.9512 32.9843 32.4953 32.4694 32.887 33.7243 34.9542 36.547 38.4713 39.636 37.5152 35.774 34.4479 33.5704 33.172 33.2794 33.9143 35.0931 36.8259 39.1157 41.9586 45.3431 52.9599 64.1345 74.8779 85.1259 94.822 103.918 112.377 120.168 127.274 133.684 139.398 144.423 148.772 144.886 139.936 133.882 126.694 118.353 108.853 98.2028 86.4273 73.5661 59.675 44.8249 29.101 15.6192 5.65739 -3.3461 -11.3452 -18.3076 -24.2156 -29.0651 -32.8653 -35.638 -37.4157 -38.2408 -38.1631 -37.2391 -38.162 -38.2388 -37.4133 -35.6354 -32.863 -29.0634 -24.2149 -18.3084 -11.3477 -3.35087 5.64998 15.6088 29.0983 44.8372 59.6972 73.5932 86.4542 98.2247 108.865 118.351 126.674 133.84 139.868 144.789 148.643 144.457 139.558 133.928 127.557 120.443 112.592 104.024 94.7637 84.8505 74.3317 63.2645 51.7145 44.0899 41.0689 38.5425 36.5209 35.0073 33.9983 33.4845 33.4506 33.8763 34.7369 36.0046 37.6485 39.636 40.8007 38.6123 36.8169 35.4512 34.5498 34.1442 34.2619 34.9255 36.1519 37.9514 40.3273 43.2751 46.7832 54.6619 66.2133 77.3184 87.911 97.9325 107.334 116.075 124.127 131.469 138.092 143.995 149.185 153.677 149.662 144.548 138.296 130.872 122.258 112.448 101.451 89.292 76.0126 61.6703 46.3382 30.1043 16.1888 5.91055 -3.3785 -11.6308 -18.8132 -24.9072 -29.9087 -33.8273 -36.6854 -38.5167 -39.3647 -39.2812 -38.3243 -39.2801 -39.3628 -38.5142 -36.6828 -33.8249 -29.9069 -24.9065 -18.8139 -11.6334 -3.38343 5.90291 16.1781 30.1015 46.3509 61.6932 76.0406 89.3198 101.473 112.46 122.256 130.851 138.251 144.478 149.561 153.544 149.221 144.16 138.344 131.761 124.41 116.298 107.442 97.8724 87.6267 76.7545 65.315 53.3761 45.4894 42.3565 39.7355 37.6366 36.0633 35.0123 34.4737 34.4317 34.8655 35.7496 37.055 38.7499 40.8007 41.9655 39.7094 37.8598 36.4545 35.5291 35.1163 35.2444 35.9368 37.2108 39.077 41.5388 44.5917 48.2234 56.3639 68.2921 79.7589 90.696 101.043 110.749 119.773 128.085 135.664 142.499 148.591 153.947 158.582 154.437 149.161 142.709 135.05 126.163 116.043 104.699 92.1567 78.4592 63.6656 47.8515 31.1077 16.7585 6.16372 -3.41091 -11.9165 -19.3188 -25.5988 -30.7523 -34.7893 -37.7328 -39.6177 -40.4887 -40.3993 -39.4094 -40.3982 -40.4867 -39.6151 -37.7301 -34.7868 -30.7505 -25.5981 -19.3195 -11.9192 -3.41599 6.15583 16.7473 31.1048 47.8646 63.6893 78.488 92.1854 104.722 116.056 126.161 135.028 142.663 149.088 154.333 158.444 153.984 148.762 142.759 135.965 128.377 120.003 110.861 100.981 90.4028 79.1773 67.3655 55.0376 46.8888 43.6442 40.9284 38.7522 37.1193 36.0262 35.4628 35.4129 35.8548 36.7623 38.1054 39.8514 41.9655 43.1302 40.8066 38.9027 37.4578 36.5085 36.0884 36.2269 36.948 38.2696 40.2026 42.7503 45.9082 49.6635 58.0659 70.3708 82.1995 93.4811 104.154 114.165 123.472 132.043 139.859 146.907 153.188 158.709 163.486 159.213 153.773 147.122 139.227 130.068 119.638 107.947 95.0214 80.9057 65.6609 49.3648 32.111 17.3281 6.41689 -3.44331 -12.2021 -19.8243 -26.2904 -31.596 -35.7513 -38.7802 -40.7186 -41.6127 -41.5175 -40.4946 -41.5162 -41.6106 -40.716 -38.7774 -35.7488 -31.5941 -26.2896 -19.8251 -12.2049 -3.44855 6.40876 17.3166 32.108 49.3783 65.6853 80.9354 95.0509 107.971 119.651 130.066 139.205 147.075 153.698 159.106 163.344 158.747 153.364 147.175 140.169 132.344 123.708 114.28 104.09 93.1789 81.6001 69.4161 56.6992 48.2883 44.9318 42.1213 39.8679 38.1754 37.0402 36.452 36.3941 36.8441 37.7749 39.1558 40.9528 43.1302 44.2949 41.9037 39.9457 38.461 37.4878 37.0605 37.2094 37.9592 39.3284 41.3281 43.9619 47.2248 51.1037 59.7679 72.4496 84.64 96.2662 107.264 117.58 127.17 136.001 144.053 151.315 157.784 163.471 168.391 163.988 158.385 151.536 143.405 133.973 123.233 111.195 97.8861 83.3523 67.6562 50.8781 33.1143 17.8977 6.67006 -3.47572 -12.4878 -20.3299 -26.982 -32.4396 -36.7133 -39.8277 -41.8196 -42.7367 -42.6356 -41.5798 -42.6343 -42.7345 -41.8168 -39.8248 -36.7107 -32.4377 -26.9812 -20.3307 -12.4906 -3.48111 6.66169 17.8859 33.1113 50.892 67.6813 83.3829 97.9165 111.219 123.246 133.971 143.382 151.487 158.308 163.878 168.245 163.51 157.965 151.59 144.373 136.311 127.413 117.699 107.198 95.9551 84.0228 71.4666 58.3608 49.6877 46.2195 43.3142 40.9836 39.2314 38.0542 37.4412 37.3752 37.8333 38.7876 40.2062 42.0543 44.2949 45.4596 43.0008 40.9886 39.4643 38.4671 38.0327 38.1919 38.9705 40.3872 42.4537 45.1734 48.5413 52.5438 61.4699 74.5284 87.0805 99.0513 110.375 120.995 130.868 139.96 148.248 155.722 162.381 168.233 173.295 168.764 162.997 155.949 147.583 137.878 126.828 114.443 100.751 85.7988 69.6515 52.3915 34.1177 18.4673 6.92322 -3.50812 -12.7734 -20.8355 -27.6736 -33.2832 -37.6753 -40.8751 -42.9205 -43.8607 -43.7537 -42.665 -43.7524 -43.8584 -42.9177 -40.8721 -37.6726 -33.2812 -27.6728 -20.8363 -12.7764 -3.51367 6.91461 18.4552 34.1146 52.4058 69.6773 85.8303 100.782 114.468 126.842 137.876 147.559 155.899 162.918 168.651 173.145 168.273 162.567 156.006 148.577 140.278 131.119 121.118 110.307 98.7312 86.4456 73.5171 60.0223 51.0872 47.5071 44.5071 42.0992 40.2875 39.0682 38.4304 38.3564 38.8226 39.8003 41.2566 43.1558 45.4596 46.6243 44.098 42.0315 40.4676 39.4465 39.0048 39.1745 39.9817 41.4461 43.5793 46.3849 49.8579 53.9839 63.1719 76.6072 89.521 101.836 113.485 124.411 134.566 143.918 152.443 160.13 166.977 172.995 178.2 173.54 167.61 160.362 151.761 141.783 130.423 117.691 103.615 88.2453 71.6468 53.9048 35.121 19.0369 7.17639 -3.54053 -13.0591 -21.341 -28.3652 -34.1268 -38.6373 -41.9225 -44.0215 -44.9846 -44.8718 -43.7501 -44.8705 -44.9823 -44.0186 -41.9195 -38.6345 -34.1248 -28.3643 -21.3419 -13.0621 -3.54623 7.16754 19.0244 35.1178 53.9195 71.6734 88.2777 103.648 117.717 130.437 141.781 151.736 160.311 167.528 173.423 178.045 173.036 167.169 160.421 152.781 144.246 134.824 124.536 113.416 101.507 88.8684 75.5676 61.6839 52.4867 48.7948 45.7001 43.2149 41.3435 40.0821 39.4195 39.3376 39.8119 40.8129 42.3071 44.2572 46.6243 47.789 45.1951 43.0744 41.4709 40.4258 39.9769 40.157 40.993 42.5049 44.7049 47.5965 51.1744 55.4241 64.8739 78.6859 91.9615 104.621 116.596 127.826 138.265 147.876 156.638 164.537 171.574 177.757 183.105 178.315 172.222 164.775 155.938 145.688 134.018 120.939 106.48 90.6919 73.6421 55.4181 36.1244 19.6065 7.42956 -3.57293 -13.3447 -21.8466 -29.0568 -34.9705 -39.5993 -42.9699 -45.1224 -46.1086 -45.9899 -44.8353 -45.9886 -46.1063 -45.1195 -42.9668 -39.5965 -34.9684 -29.0559 -21.8475 -13.3478 -3.57879 7.42047 19.5937 36.1211 55.4332 73.6694 90.7251 106.513 120.965 134.033 145.686 155.913 164.723 172.138 178.196 182.946 177.8 171.771 164.837 156.985 148.213 138.529 127.955 116.524 104.283 91.2912 77.6181 63.3454 53.8861 50.0824 46.893 44.3306 42.3995 41.0961 40.4087 40.3187 40.8011 41.8256 43.3575 45.3587 47.789 48.9537 46.2922 44.1174 42.4742 41.4052 40.949 41.1395 42.0042 43.5637 45.8304 48.808 52.4909 56.8642 66.5759 80.7647 94.4021 107.406 119.706 131.241 141.963 151.835 160.833 168.945 176.171 182.519 188.009 183.091 176.834 169.189 160.116 149.593 137.613 124.186 109.345 93.1384 75.6374 56.9314 37.1277 20.1761 7.68272 -3.60534 -13.6304 -22.3522 -29.7484 -35.8141 -40.5613 -44.0173 -46.2234 -47.2326 -47.108 -45.9205 -47.1066 -47.2302 -46.2204 -44.0141 -40.5584 -35.812 -29.7475 -22.3531 -13.6336 -3.61135 7.67339 20.163 37.1243 56.9469 75.6654 93.1725 109.379 124.214 137.628 149.591 160.09 169.135 176.748 182.968 187.846 182.563 176.372 169.252 161.189 152.18 142.234 131.374 119.633 107.06 93.714 79.6687 65.007 55.2856 51.3701 48.0859 45.4462 43.4556 42.1101 41.3979 41.2999 41.7904 42.8383 44.4079 46.4601 48.9537 50.1184 47.3894 45.1603 43.4775 42.3845 41.9211 42.122 43.0155 44.6225 46.956 50.0196 53.8075 58.3044 68.2779 82.8435 96.8426 110.192 122.817 134.657 145.661 155.793 165.027 173.352 180.767 1