<?xml version="1.0"?> 
<VTKFile type="StructuredGrid" version="0.1"> 
<StructuredGrid WholeExtent="0 199 0 200 0 0"> 
<Piece Extent="0 199 0 200 0 0"> 
<PointData Vectors="Displ">
<DataArray type="Float32" Name="Displ" format="ascii" NumberOfComponents="3"> 
0 -1.7648e-05 0 -1.00016e-06 -1.7645e-05 0 -1.99045e-06 -1.76361e-05 0 -2.97107e-06 -1.76216e-05 0 -3.94223e-06 -1.76017e-05 0 -4.90408e-06 -1.75769e-05 0 -5.85678e-06 -1.75474e-05 0 -6.80043e-06 -1.75135e-05 0 -7.73513e-06 -1.74756e-05 0 -8.66096e-06 -1.74341e-05 0 -9.57794e-06 -1.73893e-05 0 -1.04861e-05 -1.73417e-05 0 -1.13854e-05 -1.72915e-05 0 -1.22759e-05 -1.72393e-05 0 -1.31576e-05 -1.71852e-05 0 -1.40304e-05 -1.71296e-05 0 -1.48942e-05 -1.7073e-05 0 -1.57491e-05 -1.70154e-05 0 -1.65949e-05 -1.69572e-05 0 -1.74317e-05 -1.68987e-05 0 -1.82592e-05 -1.68401e-05 0 -1.90775e-05 -1.67815e-05 0 -1.98865e-05 -1.67233e-05 0 -2.0686e-05 -1.66655e-05 0 -2.1476e-05 -1.66083e-05 0 -2.22563e-05 -1.65519e-05 0 -2.3027e-05 -1.64964e-05 0 -2.37879e-05 -1.64418e-05 0 -2.45389e-05 -1.63884e-05 0 -2.52801e-05 -1.63362e-05 0 -2.60112e-05 -1.62851e-05 0 -2.67323e-05 -1.62354e-05 0 -2.74434e-05 -1.61869e-05 0 -2.81442e-05 -1.61397e-05 0 -2.88349e-05 -1.6094e-05 0 -2.95153e-05 -1.60495e-05 0 -3.01854e-05 -1.60064e-05 0 -3.08452e-05 -1.59647e-05 0 -3.14946e-05 -1.59244e-05 0 -3.21336e-05 -1.58854e-05 0 -3.27622e-05 -1.58477e-05 0 -3.33804e-05 -1.58114e-05 0 -3.39881e-05 -1.57764e-05 0 -3.45853e-05 -1.57426e-05 0 -3.5172e-05 -1.57101e-05 0 -3.57482e-05 -1.56787e-05 0 -3.63139e-05 -1.56486e-05 0 -3.68691e-05 -1.56196e-05 0 -3.74138e-05 -1.55917e-05 0 -3.79479e-05 -1.5565e-05 0 -3.84715e-05 -1.55393e-05 0 -3.89846e-05 -1.55146e-05 0 -3.94871e-05 -1.54909e-05 0 -3.99791e-05 -1.54682e-05 0 -4.04606e-05 -1.54464e-05 0 -4.09316e-05 -1.54255e-05 0 -4.1392e-05 -1.54055e-05 0 -4.1842e-05 -1.53863e-05 0 -4.22815e-05 -1.53679e-05 0 -4.27104e-05 -1.53503e-05 0 -4.31289e-05 -1.53335e-05 0 -4.35369e-05 -1.53174e-05 0 -4.39345e-05 -1.53019e-05 0 -4.43216e-05 -1.52872e-05 0 -4.46982e-05 -1.52731e-05 0 -4.50644e-05 -1.52597e-05 0 -4.54202e-05 -1.52468e-05 0 -4.57656e-05 -1.52346e-05 0 -4.61005e-05 -1.52229e-05 0 -4.6425e-05 -1.52117e-05 0 -4.67392e-05 -1.52011e-05 0 -4.70429e-05 -1.5191e-05 0 -4.73363e-05 -1.51813e-05 0 -4.76193e-05 -1.51722e-05 0 -4.78919e-05 -1.51635e-05 0 -4.81542e-05 -1.51552e-05 0 -4.84061e-05 -1.51474e-05 0 -4.86477e-05 -1.514e-05 0 -4.8879e-05 -1.5133e-05 0 -4.90999e-05 -1.51264e-05 0 -4.93105e-05 -1.51202e-05 0 -4.95108e-05 -1.51143e-05 0 -4.97008e-05 -1.51088e-05 0 -4.98805e-05 -1.51037e-05 0 -5.00499e-05 -1.50989e-05 0 -5.0209e-05 -1.50944e-05 0 -5.03578e-05 -1.50902e-05 0 -5.04963e-05 -1.50864e-05 0 -5.06246e-05 -1.50829e-05 0 -5.07426e-05 -1.50796e-05 0 -5.08503e-05 -1.50767e-05 0 -5.09477e-05 -1.50741e-05 0 -5.10349e-05 -1.50717e-05 0 -5.11118e-05 -1.50697e-05 0 -5.11785e-05 -1.50679e-05 0 -5.12349e-05 -1.50664e-05 0 -5.1281e-05 -1.50652e-05 0 -5.13169e-05 -1.50642e-05 0 -5.13425e-05 -1.50636e-05 0 -5.13579e-05 -1.50632e-05 0 -5.13633e-05 -1.50614e-05 0 -5.13641e-05 -1.50565e-05 0 -5.13654e-05 -1.50484e-05 0 -5.13673e-05 -1.5037e-05 0 -5.13697e-05 -1.50224e-05 0 -5.13726e-05 -1.50045e-05 0 -5.13761e-05 -1.49833e-05 0 -5.13801e-05 -1.49589e-05 0 -5.13847e-05 -1.49313e-05 0 -5.13898e-05 -1.49003e-05 0 -5.13955e-05 -1.48662e-05 0 -5.14017e-05 -1.48287e-05 0 -5.14085e-05 -1.4788e-05 0 -5.1416e-05 -1.47441e-05 0 -5.1424e-05 -1.46968e-05 0 -5.14326e-05 -1.46463e-05 0 -5.14418e-05 -1.45926e-05 0 -5.14516e-05 -1.45355e-05 0 -5.14621e-05 -1.44752e-05 0 -5.14732e-05 -1.44116e-05 0 -5.1485e-05 -1.43447e-05 0 -5.14975e-05 -1.42746e-05 0 -5.15106e-05 -1.42011e-05 0 -5.15245e-05 -1.41244e-05 0 -5.1539e-05 -1.40444e-05 0 -5.15543e-05 -1.39611e-05 0 -5.15704e-05 -1.38745e-05 0 -5.15872e-05 -1.37846e-05 0 -5.16049e-05 -1.36914e-05 0 -5.16233e-05 -1.35949e-05 0 -5.16426e-05 -1.34951e-05 0 -5.16627e-05 -1.3392e-05 0 -5.16838e-05 -1.32856e-05 0 -5.17057e-05 -1.3176e-05 0 -5.17286e-05 -1.3063e-05 0 -5.17524e-05 -1.29467e-05 0 -5.17772e-05 -1.2827e-05 0 -5.1803e-05 -1.27041e-05 0 -5.18299e-05 -1.25779e-05 0 -5.18579e-05 -1.24484e-05 0 -5.18869e-05 -1.23157e-05 0 -5.19171e-05 -1.21796e-05 0 -5.19484e-05 -1.20402e-05 0 -5.1981e-05 -1.18976e-05 0 -5.20147e-05 -1.17517e-05 0 -5.20498e-05 -1.16025e-05 0 -5.20861e-05 -1.14501e-05 0 -5.21238e-05 -1.12944e-05 0 -5.21628e-05 -1.11356e-05 0 -5.22033e-05 -1.09735e-05 0 -5.22452e-05 -1.08082e-05 0 -5.22885e-05 -1.06398e-05 0 -5.23334e-05 -1.04682e-05 0 -5.23798e-05 -1.02935e-05 0 -5.24278e-05 -1.01158e-05 0 -5.24774e-05 -9.93493e-06 0 -5.25286e-05 -9.75107e-06 0 -5.25815e-05 -9.56422e-06 0 -5.2636e-05 -9.37444e-06 0 -5.26922e-05 -9.18177e-06 0 -5.27502e-05 -8.98624e-06 0 -5.28099e-05 -8.78793e-06 0 -5.28713e-05 -8.58688e-06 0 -5.29344e-05 -8.38316e-06 0 -5.29993e-05 -8.17683e-06 0 -5.30658e-05 -7.96798e-06 0 -5.31341e-05 -7.75667e-06 0 -5.32039e-05 -7.543e-06 0 -5.32754e-05 -7.32705e-06 0 -5.33484e-05 -7.10892e-06 0 -5.3423e-05 -6.8887e-06 0 -5.34989e-05 -6.6665e-06 0 -5.35762e-05 -6.44242e-06 0 -5.36546e-05 -6.21657e-06 0 -5.37342e-05 -5.98906e-06 0 -5.38146e-05 -5.76001e-06 0 -5.38958e-05 -5.52952e-06 0 -5.39776e-05 -5.29771e-06 0 -5.40597e-05 -5.06471e-06 0 -5.41418e-05 -4.83062e-06 0 -5.42238e-05 -4.59559e-06 0 -5.43053e-05 -4.35971e-06 0 -5.4386e-05 -4.12309e-06 0 -5.44656e-05 -3.88581e-06 0 -5.45437e-05 -3.64795e-06 0 -5.46201e-05 -3.40956e-06 0 -5.46942e-05 -3.17067e-06 0 -5.47656e-05 -2.93131e-06 0 -5.4834e-05 -2.69147e-06 0 -5.48987e-05 -2.45116e-06 0 -5.49595e-05 -2.21035e-06 0 -5.50157e-05 -1.96897e-06 0 -5.50669e-05 -1.72695e-06 0 -5.51126e-05 -1.48417e-06 0 -5.51524e-05 -1.24045e-06 0 -5.51859e-05 -9.95624e-07 0 -5.52125e-05 -7.49445e-07 0 -5.5232e-05 -5.01655e-07 0 -5.5244e-05 -2.51951e-07 0 -5.5248e-05 0 0 0 -1.75982e-05 0 -9.924e-07 -1.75953e-05 0 -1.97507e-06 -1.75866e-05 0 -2.94822e-06 -1.75723e-05 0 -3.91205e-06 -1.75527e-05 0 -4.86672e-06 -1.7528e-05 0 -5.81236e-06 -1.74987e-05 0 -6.7491e-06 -1.74651e-05 0 -7.67702e-06 -1.74274e-05 0 -8.59618e-06 -1.73861e-05 0 -9.50664e-06 -1.73416e-05 0 -1.04084e-05 -1.72941e-05 0 -1.13015e-05 -1.72442e-05 0 -1.21858e-05 -1.71921e-05 0 -1.30615e-05 -1.71382e-05 0 -1.39284e-05 -1.70828e-05 0 -1.47864e-05 -1.70262e-05 0 -1.56357e-05 -1.69688e-05 0 -1.6476e-05 -1.69107e-05 0 -1.73074e-05 -1.68523e-05 0 -1.81297e-05 -1.67937e-05 0 -1.89428e-05 -1.67352e-05 0 -1.97468e-05 -1.66769e-05 0 -2.05414e-05 -1.66191e-05 0 -2.13266e-05 -1.65619e-05 0 -2.21023e-05 -1.65054e-05 0 -2.28684e-05 -1.64498e-05 0 -2.36249e-05 -1.63952e-05 0 -2.43716e-05 -1.63416e-05 0 -2.51086e-05 -1.62892e-05 0 -2.58357e-05 -1.6238e-05 0 -2.65528e-05 -1.61881e-05 0 -2.726e-05 -1.61395e-05 0 -2.79572e-05 -1.60921e-05 0 -2.86442e-05 -1.60461e-05 0 -2.93211e-05 -1.60015e-05 0 -2.99878e-05 -1.59581e-05 0 -3.06443e-05 -1.59162e-05 0 -3.12906e-05 -1.58756e-05 0 -3.19265e-05 -1.58363e-05 0 -3.25521e-05 -1.57984e-05 0 -3.31674e-05 -1.57618e-05 0 -3.37723e-05 -1.57265e-05 0 -3.43669e-05 -1.56924e-05 0 -3.4951e-05 -1.56596e-05 0 -3.55247e-05 -1.56279e-05 0 -3.6088e-05 -1.55975e-05 0 -3.66409e-05 -1.55682e-05 0 -3.71834e-05 -1.554e-05 0 -3.77154e-05 -1.55129e-05 0 -3.8237e-05 -1.54869e-05 0 -3.87481e-05 -1.54619e-05 0 -3.92488e-05 -1.54378e-05 0 -3.9739e-05 -1.54148e-05 0 -4.02188e-05 -1.53926e-05 0 -4.06882e-05 -1.53714e-05 0 -4.11472e-05 -1.5351e-05 0 -4.15957e-05 -1.53315e-05 0 -4.20338e-05 -1.53127e-05 0 -4.24615e-05 -1.52948e-05 0 -4.28788e-05 -1.52776e-05 0 -4.32857e-05 -1.52611e-05 0 -4.36823e-05 -1.52453e-05 0 -4.40684e-05 -1.52302e-05 0 -4.44442e-05 -1.52157e-05 0 -4.48096e-05 -1.52019e-05 0 -4.51646e-05 -1.51887e-05 0 -4.55093e-05 -1.5176e-05 0 -4.58437e-05 -1.5164e-05 0 -4.61677e-05 -1.51524e-05 0 -4.64814e-05 -1.51414e-05 0 -4.67848e-05 -1.51309e-05 0 -4.70779e-05 -1.51209e-05 0 -4.73607e-05 -1.51113e-05 0 -4.76332e-05 -1.51022e-05 0 -4.78954e-05 -1.50936e-05 0 -4.81473e-05 -1.50853e-05 0 -4.8389e-05 -1.50775e-05 0 -4.86204e-05 -1.50701e-05 0 -4.88415e-05 -1.50631e-05 0 -4.90524e-05 -1.50564e-05 0 -4.9253e-05 -1.50501e-05 0 -4.94434e-05 -1.50442e-05 0 -4.96236e-05 -1.50386e-05 0 -4.97935e-05 -1.50333e-05 0 -4.99532e-05 -1.50284e-05 0 -5.01027e-05 -1.50238e-05 0 -5.02419e-05 -1.50195e-05 0 -5.0371e-05 -1.50155e-05 0 -5.04898e-05 -1.50118e-05 0 -5.05985e-05 -1.50084e-05 0 -5.06969e-05 -1.50053e-05 0 -5.07852e-05 -1.50025e-05 0 -5.08632e-05 -1.49999e-05 0 -5.0931e-05 -1.49977e-05 0 -5.09887e-05 -1.49957e-05 0 -5.10362e-05 -1.4994e-05 0 -5.10734e-05 -1.49925e-05 0 -5.11005e-05 -1.49913e-05 0 -5.11174e-05 -1.49904e-05 0 -5.1126e-05 -1.49876e-05 0 -5.11284e-05 -1.49822e-05 0 -5.11313e-05 -1.49736e-05 0 -5.11347e-05 -1.49618e-05 0 -5.11386e-05 -1.49467e-05 0 -5.1143e-05 -1.49284e-05 0 -5.1148e-05 -1.49068e-05 0 -5.11535e-05 -1.4882e-05 0 -5.11595e-05 -1.4854e-05 0 -5.11661e-05 -1.48227e-05 0 -5.11732e-05 -1.47882e-05 0 -5.11808e-05 -1.47505e-05 0 -5.1189e-05 -1.47095e-05 0 -5.11978e-05 -1.46653e-05 0 -5.12071e-05 -1.46178e-05 0 -5.12171e-05 -1.45671e-05 0 -5.12276e-05 -1.45131e-05 0 -5.12387e-05 -1.44559e-05 0 -5.12505e-05 -1.43954e-05 0 -5.12628e-05 -1.43316e-05 0 -5.12759e-05 -1.42646e-05 0 -5.12895e-05 -1.41944e-05 0 -5.13039e-05 -1.41208e-05 0 -5.13189e-05 -1.4044e-05 0 -5.13346e-05 -1.3964e-05 0 -5.13511e-05 -1.38807e-05 0 -5.13683e-05 -1.37941e-05 0 -5.13862e-05 -1.37042e-05 0 -5.1405e-05 -1.3611e-05 0 -5.14245e-05 -1.35146e-05 0 -5.14448e-05 -1.34149e-05 0 -5.1466e-05 -1.33119e-05 0 -5.14881e-05 -1.32057e-05 0 -5.1511e-05 -1.30961e-05 0 -5.15349e-05 -1.29833e-05 0 -5.15597e-05 -1.28672e-05 0 -5.15855e-05 -1.27478e-05 0 -5.16122e-05 -1.26252e-05 0 -5.164e-05 -1.24993e-05 0 -5.16689e-05 -1.23701e-05 0 -5.16988e-05 -1.22376e-05 0 -5.17299e-05 -1.21019e-05 0 -5.17621e-05 -1.19629e-05 0 -5.17954e-05 -1.18206e-05 0 -5.183e-05 -1.16752e-05 0 -5.18659e-05 -1.15265e-05 0 -5.1903e-05 -1.13745e-05 0 -5.19415e-05 -1.12194e-05 0 -5.19812e-05 -1.10611e-05 0 -5.20224e-05 -1.08996e-05 0 -5.2065e-05 -1.07349e-05 0 -5.21091e-05 -1.05671e-05 0 -5.21546e-05 -1.03962e-05 0 -5.22017e-05 -1.02222e-05 0 -5.22503e-05 -1.00452e-05 0 -5.23005e-05 -9.86512e-06 0 -5.23523e-05 -9.68206e-06 0 -5.24058e-05 -9.49605e-06 0 -5.24609e-05 -9.30714e-06 0 -5.25176e-05 -9.11536e-06 0 -5.25761e-05 -8.92078e-06 0 -5.26362e-05 -8.72344e-06 0 -5.26981e-05 -8.52341e-06 0 -5.27616e-05 -8.32074e-06 0 -5.28269e-05 -8.1155e-06 0 -5.28938e-05 -7.90778e-06 0 -5.29624e-05 -7.69764e-06 0 -5.30325e-05 -7.48518e-06 0 -5.31043e-05 -7.27047e-06 0 -5.31776e-05 -7.05363e-06 0 -5.32523e-05 -6.83474e-06 0 -5.33284e-05 -6.6139e-06 0 -5.34058e-05 -6.39123e-06 0 -5.34843e-05 -6.16683e-06 0 -5.3564e-05 -5.94081e-06 0 -5.36444e-05 -5.71328e-06 0 -5.37256e-05 -5.48436e-06 0 -5.38073e-05 -5.25416e-06 0 -5.38893e-05 -5.02279e-06 0 -5.39713e-05 -4.79039e-06 0 -5.40531e-05 -4.55706e-06 0 -5.41343e-05 -4.32293e-06 0 -5.42148e-05 -4.0881e-06 0 -5.42941e-05 -3.85264e-06 0 -5.43719e-05 -3.61663e-06 0 -5.44479e-05 -3.38011e-06 0 -5.45216e-05 -3.14314e-06 0 -5.45926e-05 -2.90571e-06 0 -5.46605e-05 -2.66785e-06 0 -5.47248e-05 -2.42954e-06 0 -5.4785e-05 -2.19075e-06 0 -5.48407e-05 -1.95143e-06 0 -5.48914e-05 -1.71149e-06 0 -5.49365e-05 -1.47082e-06 0 -5.49758e-05 -1.22924e-06 0 -5.50087e-05 -9.86584e-07 0 -5.50348e-05 -7.4261e-07 0 -5.50537e-05 -4.97058e-07 0 -5.50651e-05 -2.49632e-07 0 -5.50686e-05 0 0 0 -1.75485e-05 0 -9.84669e-07 -1.75458e-05 0 -1.95976e-06 -1.75372e-05 0 -2.92547e-06 -1.75231e-05 0 -3.882e-06 -1.75037e-05 0 -4.8295e-06 -1.74792e-05 0 -5.76812e-06 -1.74501e-05 0 -6.69796e-06 -1.74167e-05 0 -7.61911e-06 -1.73793e-05 0 -8.53165e-06 -1.73382e-05 0 -9.4356e-06 -1.72939e-05 0 -1.0331e-05 -1.72466e-05 0 -1.12178e-05 -1.71969e-05 0 -1.2096e-05 -1.71449e-05 0 -1.29657e-05 -1.70912e-05 0 -1.38267e-05 -1.7036e-05 0 -1.4679e-05 -1.69795e-05 0 -1.55226e-05 -1.69222e-05 0 -1.63575e-05 -1.68642e-05 0 -1.71834e-05 -1.68058e-05 0 -1.80005e-05 -1.67473e-05 0 -1.88085e-05 -1.66888e-05 0 -1.96074e-05 -1.66306e-05 0 -2.03971e-05 -1.65727e-05 0 -2.11776e-05 -1.65155e-05 0 -2.19486e-05 -1.64589e-05 0 -2.27102e-05 -1.64033e-05 0 -2.34623e-05 -1.63485e-05 0 -2.42047e-05 -1.62949e-05 0 -2.49375e-05 -1.62423e-05 0 -2.56605e-05 -1.6191e-05 0 -2.63738e-05 -1.61409e-05 0 -2.70771e-05 -1.60921e-05 0 -2.77705e-05 -1.60445e-05 0 -2.8454e-05 -1.59983e-05 0 -2.91274e-05 -1.59534e-05 0 -2.97907e-05 -1.59099e-05 0 -3.04439e-05 -1.58677e-05 0 -3.10869e-05 -1.58268e-05 0 -3.17198e-05 -1.57873e-05 0 -3.23424e-05 -1.57491e-05 0 -3.29548e-05 -1.57122e-05 0 -3.35569e-05 -1.56766e-05 0 -3.41488e-05 -1.56422e-05 0 -3.47303e-05 -1.56091e-05 0 -3.53016e-05 -1.55771e-05 0 -3.58625e-05 -1.55464e-05 0 -3.64131e-05 -1.55167e-05 0 -3.69533e-05 -1.54882e-05 0 -3.74832e-05 -1.54608e-05 0 -3.80027e-05 -1.54345e-05 0 -3.85119e-05 -1.54091e-05 0 -3.90108e-05 -1.53847e-05 0 -3.94992e-05 -1.53613e-05 0 -3.99774e-05 -1.53389e-05 0 -4.04452e-05 -1.53173e-05 0 -4.09026e-05 -1.52965e-05 0 -4.13497e-05 -1.52766e-05 0 -4.17865e-05 -1.52575e-05 0 -4.22129e-05 -1.52392e-05 0 -4.2629e-05 -1.52217e-05 0 -4.30348e-05 -1.52048e-05 0 -4.34303e-05 -1.51887e-05 0 -4.38155e-05 -1.51732e-05 0 -4.41904e-05 -1.51583e-05 0 -4.4555e-05 -1.51441e-05 0 -4.49093e-05 -1.51305e-05 0 -4.52533e-05 -1.51175e-05 0 -4.55871e-05 -1.5105e-05 0 -4.59106e-05 -1.50931e-05 0 -4.62239e-05 -1.50817e-05 0 -4.65269e-05 -1.50708e-05 0 -4.68197e-05 -1.50604e-05 0 -4.71023e-05 -1.50504e-05 0 -4.73746e-05 -1.50409e-05 0 -4.76367e-05 -1.50318e-05 0 -4.78886e-05 -1.50232e-05 0 -4.81304e-05 -1.5015e-05 0 -4.83619e-05 -1.50071e-05 0 -4.85832e-05 -1.49997e-05 0 -4.87943e-05 -1.49926e-05 0 -4.89953e-05 -1.49859e-05 0 -4.91861e-05 -1.49795e-05 0 -4.93667e-05 -1.49735e-05 0 -4.95372e-05 -1.49678e-05 0 -4.96975e-05 -1.49624e-05 0 -4.98476e-05 -1.49573e-05 0 -4.99876e-05 -1.49526e-05 0 -5.01175e-05 -1.49481e-05 0 -5.02372e-05 -1.4944e-05 0 -5.03467e-05 -1.49401e-05 0 -5.04462e-05 -1.49365e-05 0 -5.05355e-05 -1.49332e-05 0 -5.06146e-05 -1.49302e-05 0 -5.06837e-05 -1.49274e-05 0 -5.07426e-05 -1.49249e-05 0 -5.07913e-05 -1.49227e-05 0 -5.083e-05 -1.49208e-05 0 -5.08585e-05 -1.4919e-05 0 -5.08769e-05 -1.49176e-05 0 -5.08887e-05 -1.49138e-05 0 -5.08926e-05 -1.49079e-05 0 -5.08971e-05 -1.48988e-05 0 -5.0902e-05 -1.48865e-05 0 -5.09075e-05 -1.4871e-05 0 -5.09134e-05 -1.48522e-05 0 -5.09199e-05 -1.48303e-05 0 -5.09268e-05 -1.48051e-05 0 -5.09343e-05 -1.47767e-05 0 -5.09423e-05 -1.47451e-05 0 -5.09508e-05 -1.47103e-05 0 -5.09598e-05 -1.46723e-05 0 -5.09694e-05 -1.4631e-05 0 -5.09795e-05 -1.45865e-05 0 -5.09902e-05 -1.45388e-05 0 -5.10015e-05 -1.44878e-05 0 -5.10133e-05 -1.44336e-05 0 -5.10257e-05 -1.43762e-05 0 -5.10387e-05 -1.43156e-05 0 -5.10523e-05 -1.42517e-05 0 -5.10666e-05 -1.41845e-05 0 -5.10815e-05 -1.41142e-05 0 -5.1097e-05 -1.40406e-05 0 -5.11132e-05 -1.39637e-05 0 -5.11301e-05 -1.38836e-05 0 -5.11477e-05 -1.38003e-05 0 -5.1166e-05 -1.37137e-05 0 -5.11851e-05 -1.36238e-05 0 -5.12049e-05 -1.35307e-05 0 -5.12255e-05 -1.34343e-05 0 -5.12469e-05 -1.33347e-05 0 -5.12692e-05 -1.32319e-05 0 -5.12923e-05 -1.31257e-05 0 -5.13162e-05 -1.30164e-05 0 -5.13411e-05 -1.29037e-05 0 -5.13668e-05 -1.27878e-05 0 -5.13936e-05 -1.26687e-05 0 -5.14213e-05 -1.25463e-05 0 -5.145e-05 -1.24206e-05 0 -5.14798e-05 -1.22917e-05 0 -5.15106e-05 -1.21596e-05 0 -5.15425e-05 -1.20242e-05 0 -5.15756e-05 -1.18856e-05 0 -5.16098e-05 -1.17438e-05 0 -5.16452e-05 -1.15987e-05 0 -5.16819e-05 -1.14505e-05 0 -5.17198e-05 -1.12991e-05 0 -5.1759e-05 -1.11444e-05 0 -5.17996e-05 -1.09867e-05 0 -5.18415e-05 -1.08258e-05 0 -5.18848e-05 -1.06617e-05 0 -5.19295e-05 -1.04946e-05 0 -5.19758e-05 -1.03243e-05 0 -5.20235e-05 -1.0151e-05 0 -5.20728e-05 -9.97471e-06 0 -5.21236e-05 -9.79541e-06 0 -5.2176e-05 -9.61315e-06 0 -5.223e-05 -9.42798e-06 0 -5.22856e-05 -9.23993e-06 0 -5.23429e-05 -9.04906e-06 0 -5.24019e-05 -8.85542e-06 0 -5.24625e-05 -8.65906e-06 0 -5.25248e-05 -8.46004e-06 0 -5.25888e-05 -8.25843e-06 0 -5.26544e-05 -8.05429e-06 0 -5.27217e-05 -7.84769e-06 0 -5.27906e-05 -7.63872e-06 0 -5.28611e-05 -7.42747e-06 0 -5.29331e-05 -7.21401e-06 0 -5.30066e-05 -6.99846e-06 0 -5.30816e-05 -6.78089e-06 0 -5.31578e-05 -6.56143e-06 0 -5.32354e-05 -6.34016e-06 0 -5.3314e-05 -6.11721e-06 0 -5.33937e-05 -5.89268e-06 0 -5.34742e-05 -5.66668e-06 0 -5.35554e-05 -5.43932e-06 0 -5.3637e-05 -5.21072e-06 0 -5.37189e-05 -4.981e-06 0 -5.38008e-05 -4.75027e-06 0 -5.38824e-05 -4.51865e-06 0 -5.39634e-05 -4.28627e-06 0 -5.40436e-05 -4.05321e-06 0 -5.41226e-05 -3.81957e-06 0 -5.42001e-05 -3.5854e-06 0 -5.42757e-05 -3.35077e-06 0 -5.4349e-05 -3.11569e-06 0 -5.44196e-05 -2.88021e-06 0 -5.44871e-05 -2.64431e-06 0 -5.45509e-05 -2.40799e-06 0 -5.46106e-05 -2.17122e-06 0 -5.46658e-05 -1.93395e-06 0 -5.47159e-05 -1.69609e-06 0 -5.47606e-05 -1.45752e-06 0 -5.47993e-05 -1.21808e-06 0 -5.48316e-05 -9.77581e-07 0 -5.48572e-05 -7.35802e-07 0 -5.48756e-05 -4.9248e-07 0 -5.48865e-05 -2.47323e-07 0 -5.48894e-05 0 0 0 -1.74988e-05 0 -9.7697e-07 -1.74963e-05 0 -1.9445e-06 -1.74879e-05 0 -2.90281e-06 -1.7474e-05 0 -3.85206e-06 -1.74547e-05 0 -4.79243e-06 -1.74305e-05 0 -5.72404e-06 -1.74016e-05 0 -6.64701e-06 -1.73684e-05 0 -7.56142e-06 -1.73312e-05 0 -8.46734e-06 -1.72903e-05 0 -9.3648e-06 -1.72462e-05 0 -1.02538e-05 -1.71992e-05 0 -1.11344e-05 -1.71496e-05 0 -1.20065e-05 -1.70979e-05 0 -1.28702e-05 -1.70443e-05 0 -1.37253e-05 -1.69892e-05 0 -1.45719e-05 -1.69329e-05 0 -1.54099e-05 -1.68757e-05 0 -1.62393e-05 -1.68178e-05 0 -1.70599e-05 -1.67595e-05 0 -1.78717e-05 -1.6701e-05 0 -1.86746e-05 -1.66425e-05 0 -1.94685e-05 -1.65843e-05 0 -2.02533e-05 -1.65264e-05 0 -2.1029e-05 -1.64691e-05 0 -2.17954e-05 -1.64125e-05 0 -2.25524e-05 -1.63567e-05 0 -2.33001e-05 -1.63019e-05 0 -2.40382e-05 -1.62481e-05 0 -2.47668e-05 -1.61955e-05 0 -2.54858e-05 -1.6144e-05 0 -2.61951e-05 -1.60937e-05 0 -2.68946e-05 -1.60447e-05 0 -2.75843e-05 -1.59969e-05 0 -2.82641e-05 -1.59505e-05 0 -2.8934e-05 -1.59054e-05 0 -2.95939e-05 -1.58616e-05 0 -3.02438e-05 -1.58192e-05 0 -3.08837e-05 -1.57781e-05 0 -3.15134e-05 -1.57383e-05 0 -3.21331e-05 -1.56998e-05 0 -3.27426e-05 -1.56626e-05 0 -3.3342e-05 -1.56267e-05 0 -3.39311e-05 -1.5592e-05 0 -3.45101e-05 -1.55586e-05 0 -3.50788e-05 -1.55263e-05 0 -3.56373e-05 -1.54953e-05 0 -3.61856e-05 -1.54653e-05 0 -3.67236e-05 -1.54365e-05 0 -3.72514e-05 -1.54087e-05 0 -3.77689e-05 -1.5382e-05 0 -3.82761e-05 -1.53564e-05 0 -3.87731e-05 -1.53317e-05 0 -3.92598e-05 -1.53079e-05 0 -3.97362e-05 -1.52851e-05 0 -4.02024e-05 -1.52631e-05 0 -4.06583e-05 -1.5242e-05 0 -4.1104e-05 -1.52218e-05 0 -4.15394e-05 -1.52023e-05 0 -4.19646e-05 -1.51837e-05 0 -4.23795e-05 -1.51657e-05 0 -4.27841e-05 -1.51485e-05 0 -4.31786e-05 -1.5132e-05 0 -4.35628e-05 -1.51161e-05 0 -4.39368e-05 -1.51009e-05 0 -4.43006e-05 -1.50863e-05 0 -4.46542e-05 -1.50724e-05 0 -4.49975e-05 -1.50589e-05 0 -4.53307e-05 -1.50461e-05 0 -4.56537e-05 -1.50338e-05 0 -4.59666e-05 -1.5022e-05 0 -4.62692e-05 -1.50107e-05 0 -4.65617e-05 -1.49998e-05 0 -4.6844e-05 -1.49895e-05 0 -4.71162e-05 -1.49796e-05 0 -4.73782e-05 -1.49701e-05 0 -4.76301e-05 -1.4961e-05 0 -4.78719e-05 -1.49524e-05 0 -4.81035e-05 -1.49441e-05 0 -4.8325e-05 -1.49363e-05 0 -4.85364e-05 -1.49288e-05 0 -4.87377e-05 -1.49216e-05 0 -4.89289e-05 -1.49148e-05 0 -4.911e-05 -1.49083e-05 0 -4.9281e-05 -1.49022e-05 0 -4.94419e-05 -1.48964e-05 0 -4.95927e-05 -1.48908e-05 0 -4.97334e-05 -1.48856e-05 0 -4.9864e-05 -1.48807e-05 0 -4.99846e-05 -1.48761e-05 0 -5.00951e-05 -1.48718e-05 0 -5.01955e-05 -1.48677e-05 0 -5.02858e-05 -1.48639e-05 0 -5.03661e-05 -1.48604e-05 0 -5.04363e-05 -1.48572e-05 0 -5.04964e-05 -1.48542e-05 0 -5.05465e-05 -1.48514e-05 0 -5.05866e-05 -1.4849e-05 0 -5.06165e-05 -1.48468e-05 0 -5.06364e-05 -1.48448e-05 0 -5.06513e-05 -1.48399e-05 0 -5.06569e-05 -1.48336e-05 0 -5.06629e-05 -1.4824e-05 0 -5.06694e-05 -1.48112e-05 0 -5.06763e-05 -1.47953e-05 0 -5.06838e-05 -1.47761e-05 0 -5.06917e-05 -1.47538e-05 0 -5.07001e-05 -1.47282e-05 0 -5.0709e-05 -1.46995e-05 0 -5.07184e-05 -1.46675e-05 0 -5.07283e-05 -1.46324e-05 0 -5.07388e-05 -1.4594e-05 0 -5.07497e-05 -1.45525e-05 0 -5.07612e-05 -1.45077e-05 0 -5.07732e-05 -1.44597e-05 0 -5.07858e-05 -1.44085e-05 0 -5.07989e-05 -1.43542e-05 0 -5.08126e-05 -1.42966e-05 0 -5.08269e-05 -1.42357e-05 0 -5.08417e-05 -1.41717e-05 0 -5.08572e-05 -1.41045e-05 0 -5.08733e-05 -1.4034e-05 0 -5.08901e-05 -1.39603e-05 0 -5.09074e-05 -1.38834e-05 0 -5.09255e-05 -1.38032e-05 0 -5.09442e-05 -1.37199e-05 0 -5.09637e-05 -1.36333e-05 0 -5.09839e-05 -1.35435e-05 0 -5.10048e-05 -1.34504e-05 0 -5.10265e-05 -1.33541e-05 0 -5.10489e-05 -1.32546e-05 0 -5.10722e-05 -1.31518e-05 0 -5.10963e-05 -1.30458e-05 0 -5.11213e-05 -1.29366e-05 0 -5.11471e-05 -1.28242e-05 0 -5.11739e-05 -1.27085e-05 0 -5.12016e-05 -1.25895e-05 0 -5.12302e-05 -1.24674e-05 0 -5.12599e-05 -1.2342e-05 0 -5.12905e-05 -1.22134e-05 0 -5.13223e-05 -1.20816e-05 0 -5.13551e-05 -1.19466e-05 0 -5.1389e-05 -1.18084e-05 0 -5.14241e-05 -1.1667e-05 0 -5.14603e-05 -1.15224e-05 0 -5.14978e-05 -1.13746e-05 0 -5.15365e-05 -1.12236e-05 0 -5.15765e-05 -1.10696e-05 0 -5.16178e-05 -1.09123e-05 0 -5.16604e-05 -1.0752e-05 0 -5.17045e-05 -1.05886e-05 0 -5.17499e-05 -1.0422e-05 0 -5.17968e-05 -1.02525e-05 0 -5.18452e-05 -1.00799e-05 0 -5.18951e-05 -9.90432e-06 0 -5.19465e-05 -9.72579e-06 0 -5.19995e-05 -9.54433e-06 0 -5.20541e-05 -9.35999e-06 0 -5.21103e-05 -9.17282e-06 0 -5.21681e-05 -8.98286e-06 0 -5.22276e-05 -8.79017e-06 0 -5.22887e-05 -8.59479e-06 0 -5.23514e-05 -8.39679e-06 0 -5.24159e-05 -8.19623e-06 0 -5.24819e-05 -7.99318e-06 0 -5.25496e-05 -7.78772e-06 0 -5.26188e-05 -7.57992e-06 0 -5.26896e-05 -7.36987e-06 0 -5.27619e-05 -7.15767e-06 0 -5.28357e-05 -6.9434e-06 0 -5.29108e-05 -6.72717e-06 0 -5.29873e-05 -6.50907e-06 0 -5.30649e-05 -6.28922e-06 0 -5.31437e-05 -6.06771e-06 0 -5.32235e-05 -5.84467e-06 0 -5.3304e-05 -5.62019e-06 0 -5.33851e-05 -5.39439e-06 0 -5.34667e-05 -5.1674e-06 0 -5.35485e-05 -4.93931e-06 0 -5.36302e-05 -4.71026e-06 0 -5.37117e-05 -4.48035e-06 0 -5.37925e-05 -4.24972e-06 0 -5.38725e-05 -4.01844e-06 0 -5.39512e-05 -3.7866e-06 0 -5.40284e-05 -3.55428e-06 0 -5.41036e-05 -3.32151e-06 0 -5.41765e-05 -3.08834e-06 0 -5.42467e-05 -2.85479e-06 0 -5.43137e-05 -2.62085e-06 0 -5.43771e-05 -2.38652e-06 0 -5.44363e-05 -2.15177e-06 0 -5.4491e-05 -1.91654e-06 0 -5.45406e-05 -1.68074e-06 0 -5.45847e-05 -1.44427e-06 0 -5.46229e-05 -1.20695e-06 0 -5.46547e-05 -9.68613e-07 0 -5.46797e-05 -7.29021e-07 0 -5.46976e-05 -4.87921e-07 0 -5.4708e-05 -2.45023e-07 0 -5.47104e-05 0 0 0 -1.74493e-05 0 -9.69303e-07 -1.74469e-05 0 -1.92931e-06 -1.74387e-05 0 -2.88023e-06 -1.74249e-05 0 -3.82224e-06 -1.74059e-05 0 -4.7555e-06 -1.73818e-05 0 -5.68013e-06 -1.73532e-05 0 -6.59625e-06 -1.73202e-05 0 -7.50394e-06 -1.72832e-05 0 -8.40327e-06 -1.72425e-05 0 -9.29426e-06 -1.71986e-05 0 -1.01769e-05 -1.71517e-05 0 -1.10513e-05 -1.71024e-05 0 -1.19173e-05 -1.70508e-05 0 -1.2775e-05 -1.69974e-05 0 -1.36243e-05 -1.69425e-05 0 -1.44652e-05 -1.68863e-05 0 -1.52976e-05 -1.68292e-05 0 -1.61214e-05 -1.67714e-05 0 -1.69367e-05 -1.67131e-05 0 -1.77432e-05 -1.66547e-05 0 -1.8541e-05 -1.65962e-05 0 -1.93299e-05 -1.6538e-05 0 -2.01099e-05 -1.64801e-05 0 -2.08808e-05 -1.64228e-05 0 -2.16425e-05 -1.63661e-05 0 -2.23951e-05 -1.63103e-05 0 -2.31383e-05 -1.62554e-05 0 -2.38722e-05 -1.62014e-05 0 -2.45966e-05 -1.61486e-05 0 -2.53115e-05 -1.6097e-05 0 -2.60168e-05 -1.60465e-05 0 -2.67125e-05 -1.59973e-05 0 -2.73985e-05 -1.59494e-05 0 -2.80747e-05 -1.59027e-05 0 -2.87411e-05 -1.58574e-05 0 -2.93976e-05 -1.58134e-05 0 -3.00442e-05 -1.57707e-05 0 -3.06808e-05 -1.57293e-05 0 -3.13075e-05 -1.56893e-05 0 -3.19242e-05 -1.56505e-05 0 -3.25308e-05 -1.5613e-05 0 -3.31274e-05 -1.55768e-05 0 -3.37138e-05 -1.55419e-05 0 -3.42902e-05 -1.55081e-05 0 -3.48564e-05 -1.54756e-05 0 -3.54125e-05 -1.54442e-05 0 -3.59585e-05 -1.54139e-05 0 -3.64943e-05 -1.53848e-05 0 -3.70199e-05 -1.53567e-05 0 -3.75354e-05 -1.53296e-05 0 -3.80407e-05 -1.53036e-05 0 -3.85358e-05 -1.52786e-05 0 -3.90207e-05 -1.52545e-05 0 -3.94954e-05 -1.52313e-05 0 -3.996e-05 -1.5209e-05 0 -4.04144e-05 -1.51875e-05 0 -4.08586e-05 -1.51669e-05 0 -4.12926e-05 -1.51471e-05 0 -4.17165e-05 -1.51281e-05 0 -4.21302e-05 -1.51098e-05 0 -4.25338e-05 -1.50922e-05 0 -4.29272e-05 -1.50753e-05 0 -4.33104e-05 -1.50591e-05 0 -4.36835e-05 -1.50435e-05 0 -4.40465e-05 -1.50285e-05 0 -4.43993e-05 -1.50142e-05 0 -4.4742e-05 -1.50004e-05 0 -4.50746e-05 -1.49871e-05 0 -4.53971e-05 -1.49744e-05 0 -4.57094e-05 -1.49622e-05 0 -4.60117e-05 -1.49505e-05 0 -4.63039e-05 -1.49393e-05 0 -4.6586e-05 -1.49285e-05 0 -4.6858e-05 -1.49182e-05 0 -4.71199e-05 -1.49083e-05 0 -4.73718e-05 -1.48989e-05 0 -4.76136e-05 -1.48898e-05 0 -4.78453e-05 -1.48811e-05 0 -4.8067e-05 -1.48728e-05 0 -4.82787e-05 -1.48649e-05 0 -4.84803e-05 -1.48573e-05 0 -4.86718e-05 -1.48501e-05 0 -4.88534e-05 -1.48431e-05 0 -4.90249e-05 -1.48366e-05 0 -4.91863e-05 -1.48303e-05 0 -4.93378e-05 -1.48243e-05 0 -4.94792e-05 -1.48187e-05 0 -4.96106e-05 -1.48133e-05 0 -4.9732e-05 -1.48082e-05 0 -4.98434e-05 -1.48034e-05 0 -4.99448e-05 -1.47989e-05 0 -5.00362e-05 -1.47946e-05 0 -5.01176e-05 -1.47906e-05 0 -5.0189e-05 -1.47869e-05 0 -5.02504e-05 -1.47834e-05 0 -5.03017e-05 -1.47802e-05 0 -5.03431e-05 -1.47772e-05 0 -5.03745e-05 -1.47745e-05 0 -5.03959e-05 -1.4772e-05 0 -5.0414e-05 -1.47661e-05 0 -5.04211e-05 -1.47592e-05 0 -5.04287e-05 -1.47492e-05 0 -5.04367e-05 -1.47359e-05 0 -5.04451e-05 -1.47195e-05 0 -5.04541e-05 -1.47e-05 0 -5.04635e-05 -1.46772e-05 0 -5.04733e-05 -1.46513e-05 0 -5.04837e-05 -1.46222e-05 0 -5.04945e-05 -1.45899e-05 0 -5.05058e-05 -1.45544e-05 0 -5.05176e-05 -1.45158e-05 0 -5.053e-05 -1.44739e-05 0 -5.05428e-05 -1.44289e-05 0 -5.05561e-05 -1.43807e-05 0 -5.057e-05 -1.43293e-05 0 -5.05844e-05 -1.42747e-05 0 -5.05994e-05 -1.42169e-05 0 -5.06149e-05 -1.41559e-05 0 -5.06311e-05 -1.40918e-05 0 -5.06478e-05 -1.40244e-05 0 -5.06651e-05 -1.39538e-05 0 -5.0683e-05 -1.38801e-05 0 -5.07016e-05 -1.38031e-05 0 -5.07208e-05 -1.37229e-05 0 -5.07407e-05 -1.36395e-05 0 -5.07612e-05 -1.35529e-05 0 -5.07825e-05 -1.34631e-05 0 -5.08045e-05 -1.33701e-05 0 -5.08273e-05 -1.32739e-05 0 -5.08508e-05 -1.31745e-05 0 -5.08751e-05 -1.30718e-05 0 -5.09003e-05 -1.2966e-05 0 -5.09262e-05 -1.28569e-05 0 -5.09531e-05 -1.27446e-05 0 -5.09808e-05 -1.26292e-05 0 -5.10095e-05 -1.25105e-05 0 -5.10391e-05 -1.23886e-05 0 -5.10696e-05 -1.22635e-05 0 -5.11012e-05 -1.21352e-05 0 -5.11338e-05 -1.20037e-05 0 -5.11675e-05 -1.18691e-05 0 -5.12023e-05 -1.17312e-05 0 -5.12382e-05 -1.15902e-05 0 -5.12753e-05 -1.14461e-05 0 -5.13136e-05 -1.12988e-05 0 -5.13531e-05 -1.11483e-05 0 -5.13938e-05 -1.09947e-05 0 -5.14359e-05 -1.08381e-05 0 -5.14793e-05 -1.06783e-05 0 -5.1524e-05 -1.05155e-05 0 -5.15702e-05 -1.03496e-05 0 -5.16178e-05 -1.01807e-05 0 -5.16668e-05 -1.00089e-05 0 -5.17174e-05 -9.83402e-06 0 -5.17694e-05 -9.65626e-06 0 -5.1823e-05 -9.47561e-06 0 -5.18782e-05 -9.29211e-06 0 -5.19349e-05 -9.10581e-06 0 -5.19933e-05 -8.91677e-06 0 -5.20533e-05 -8.72502e-06 0 -5.21148e-05 -8.53062e-06 0 -5.21781e-05 -8.33364e-06 0 -5.22429e-05 -8.13413e-06 0 -5.23093e-05 -7.93218e-06 0 -5.23774e-05 -7.72785e-06 0 -5.2447e-05 -7.52123e-06 0 -5.25181e-05 -7.3124e-06 0 -5.25907e-05 -7.10144e-06 0 -5.26647e-05 -6.88846e-06 0 -5.274e-05 -6.67356e-06 0 -5.28167e-05 -6.45683e-06 0 -5.28945e-05 -6.23839e-06 0 -5.29734e-05 -6.01833e-06 0 -5.30532e-05 -5.79677e-06 0 -5.31337e-05 -5.57382e-06 0 -5.32149e-05 -5.34959e-06 0 -5.32964e-05 -5.12419e-06 0 -5.33781e-05 -4.89774e-06 0 -5.34597e-05 -4.67036e-06 0 -5.3541e-05 -4.44217e-06 0 -5.36216e-05 -4.21327e-06 0 -5.37014e-05 -3.98377e-06 0 -5.37798e-05 -3.75374e-06 0 -5.38567e-05 -3.52325e-06 0 -5.39316e-05 -3.29236e-06 0 -5.40041e-05 -3.06108e-06 0 -5.40738e-05 -2.82946e-06 0 -5.41404e-05 -2.59747e-06 0 -5.42033e-05 -2.36513e-06 0 -5.42621e-05 -2.13238e-06 0 -5.43162e-05 -1.89919e-06 0 -5.43653e-05 -1.66546e-06 0 -5.44089e-05 -1.43107e-06 0 -5.44466e-05 -1.19588e-06 0 -5.44779e-05 -9.59681e-07 0 -5.45024e-05 -7.22268e-07 0 -5.45197e-05 -4.83381e-07 0 -5.45296e-05 -2.42733e-07 0 -5.45316e-05 0 0 0 -1.73998e-05 0 -9.61668e-07 -1.73976e-05 0 -1.91419e-06 -1.73895e-05 0 -2.85775e-06 -1.73759e-05 0 -3.79254e-06 -1.7357e-05 0 -4.71871e-06 -1.73332e-05 0 -5.63639e-06 -1.73048e-05 0 -6.54569e-06 -1.7272e-05 0 -7.44668e-06 -1.72352e-05 0 -8.33943e-06 -1.71947e-05 0 -9.22398e-06 -1.7151e-05 0 -1.01003e-05 -1.71044e-05 0 -1.09685e-05 -1.70552e-05 0 -1.18284e-05 -1.70038e-05 0 -1.26802e-05 -1.69506e-05 0 -1.35236e-05 -1.68958e-05 0 -1.43588e-05 -1.68397e-05 0 -1.51856e-05 -1.67827e-05 0 -1.6004e-05 -1.6725e-05 0 -1.68139e-05 -1.66668e-05 0 -1.76152e-05 -1.66084e-05 0 -1.84079e-05 -1.655e-05 0 -1.91918e-05 -1.64917e-05 0 -1.99669e-05 -1.64339e-05 0 -2.0733e-05 -1.63765e-05 0 -2.14901e-05 -1.63198e-05 0 -2.22381e-05 -1.62638e-05 0 -2.2977e-05 -1.62088e-05 0 -2.37066e-05 -1.61548e-05 0 -2.44268e-05 -1.61018e-05 0 -2.51377e-05 -1.605e-05 0 -2.5839e-05 -1.59994e-05 0 -2.65309e-05 -1.595e-05 0 -2.72131e-05 -1.59019e-05 0 -2.78857e-05 -1.5855e-05 0 -2.85485e-05 -1.58094e-05 0 -2.92017e-05 -1.57652e-05 0 -2.9845e-05 -1.57222e-05 0 -3.04784e-05 -1.56806e-05 0 -3.1102e-05 -1.56403e-05 0 -3.17157e-05 -1.56013e-05 0 -3.23194e-05 -1.55635e-05 0 -3.29132e-05 -1.5527e-05 0 -3.34969e-05 -1.54917e-05 0 -3.40707e-05 -1.54577e-05 0 -3.46344e-05 -1.54248e-05 0 -3.51881e-05 -1.53931e-05 0 -3.57318e-05 -1.53625e-05 0 -3.62653e-05 -1.5333e-05 0 -3.67888e-05 -1.53046e-05 0 -3.73022e-05 -1.52772e-05 0 -3.78056e-05 -1.52509e-05 0 -3.82988e-05 -1.52255e-05 0 -3.87819e-05 -1.5201e-05 0 -3.9255e-05 -1.51775e-05 0 -3.97179e-05 -1.51548e-05 0 -4.01708e-05 -1.5133e-05 0 -4.06135e-05 -1.51121e-05 0 -4.10462e-05 -1.50919e-05 0 -4.14688e-05 -1.50725e-05 0 -4.18812e-05 -1.50538e-05 0 -4.22837e-05 -1.50359e-05 0 -4.2676e-05 -1.50186e-05 0 -4.30583e-05 -1.5002e-05 0 -4.34305e-05 -1.4986e-05 0 -4.37926e-05 -1.49707e-05 0 -4.41447e-05 -1.49559e-05 0 -4.44867e-05 -1.49418e-05 0 -4.48187e-05 -1.49281e-05 0 -4.51406e-05 -1.4915e-05 0 -4.54525e-05 -1.49024e-05 0 -4.57544e-05 -1.48903e-05 0 -4.60463e-05 -1.48787e-05 0 -4.63281e-05 -1.48675e-05 0 -4.66e-05 -1