<?xml version="1.0"?> 
<VTKFile type="StructuredGrid" version="0.1"> 
<StructuredGrid WholeExtent="0 199 0 200 0 0"> 
<Piece Extent="0 199 0 200 0 0"> 
<PointData Scalars="Stress components">
<DataArray type="Float32" Name="sigma_xx" format="ascii" NumberOfComponents="1"> 
1.02247 1.02247 1.02262 1.02291 1.02331 1.02381 1.02441 1.02507 1.02579 1.02655 1.02733 1.02812 1.02891 1.0297 1.03048 1.03126 1.03201 1.03274 1.03343 1.03408 1.03467 1.03519 1.03565 1.03605 1.03639 1.03668 1.03692 1.0371 1.03724 1.03732 1.03735 1.03733 1.03727 1.03716 1.03701 1.03682 1.0366 1.03635 1.03608 1.03578 1.03546 1.03512 1.03476 1.03439 1.034 1.03361 1.0332 1.03279 1.03236 1.03194 1.03151 1.03108 1.03065 1.03023 1.0298 1.02938 1.02896 1.02855 1.02814 1.02774 1.02734 1.02696 1.02658 1.02621 1.02585 1.0255 1.02516 1.02482 1.0245 1.02418 1.02388 1.02358 1.02329 1.02302 1.02275 1.0225 1.02225 1.02202 1.02179 1.02158 1.02137 1.02118 1.02099 1.02082 1.02066 1.0205 1.02036 1.02023 1.0201 1.01999 1.01989 1.01979 1.01971 1.01964 1.01957 1.01952 1.01948 1.01944 1.01942 1.0194 1.0194 1.0194 1.01939 1.01938 1.01937 1.01936 1.01934 1.01933 1.01931 1.01928 1.01925 1.01922 1.01919 1.01915 1.01911 1.01906 1.01901 1.01896 1.0189 1.01883 1.01876 1.01868 1.01859 1.01849 1.01838 1.01826 1.01814 1.018 1.01785 1.0177 1.01752 1.01734 1.01714 1.01692 1.01669 1.01643 1.01616 1.01587 1.01556 1.01522 1.01485 1.01446 1.01403 1.01357 1.01307 1.01254 1.01196 1.01135 1.01069 1.00999 1.00924 1.00845 1.0076 1.00669 1.00572 1.00468 1.00357 1.00239 1.00114 0.999811 0.998406 0.996917 0.995335 0.993654 0.99187 0.98998 0.987984 0.985883 0.983681 0.981383 0.978992 0.976501 0.973902 0.971192 0.96837 0.965439 0.962403 0.959272 0.956057 0.952773 0.949435 0.946055 0.942648 0.939227 0.935812 0.93242 0.929074 0.925798 0.922615 0.919553 0.916642 0.913917 0.911413 0.909162 0.907193 0.905531 0.9042 0.903219 0.902608 0.902381 1.02266 1.02267 1.02282 1.0231 1.02351 1.02401 1.0246 1.02526 1.02598 1.02674 1.02752 1.02831 1.02911 1.0299 1.03069 1.03146 1.03222 1.03296 1.03365 1.0343 1.0349 1.03543 1.03589 1.0363 1.03665 1.03694 1.03718 1.03737 1.03751 1.0376 1.03764 1.03762 1.03756 1.03746 1.03731 1.03713 1.03691 1.03666 1.03639 1.03609 1.03577 1.03544 1.03508 1.03471 1.03433 1.03393 1.03352 1.03311 1.03268 1.03226 1.03183 1.0314 1.03097 1.03054 1.03012 1.02969 1.02927 1.02886 1.02845 1.02804 1.02764 1.02725 1.02687 1.0265 1.02614 1.02578 1.02544 1.0251 1.02477 1.02445 1.02414 1.02384 1.02355 1.02327 1.02301 1.02275 1.0225 1.02226 1.02203 1.02181 1.02161 1.02141 1.02122 1.02105 1.02088 1.02073 1.02058 1.02044 1.02032 1.0202 1.0201 1.02 1.01991 1.01984 1.01977 1.01972 1.01967 1.01964 1.01961 1.01959 1.01958 1.01958 1.01957 1.01956 1.01955 1.01953 1.01952 1.0195 1.01947 1.01945 1.01942 1.01938 1.01935 1.01931 1.01926 1.01922 1.01916 1.01911 1.01904 1.01897 1.01889 1.01881 1.01872 1.01862 1.01851 1.01839 1.01826 1.01812 1.01797 1.0178 1.01763 1.01743 1.01723 1.017 1.01676 1.01651 1.01623 1.01593 1.01561 1.01526 1.01488 1.01448 1.01404 1.01357 1.01307 1.01252 1.01194 1.01131 1.01065 1.00993 1.00918 1.00837 1.00751 1.00658 1.0056 1.00454 1.00342 1.00222 1.00095 0.999601 0.998178 0.996671 0.995069 0.993369 0.991564 0.989654 0.987637 0.985516 0.983293 0.980973 0.97856 0.976048 0.973427 0.970696 0.967853 0.964901 0.961845 0.958695 0.955461 0.952159 0.948804 0.945408 0.941985 0.938551 0.935122 0.931719 0.928363 0.925077 0.921886 0.918818 0.915901 0.913171 0.910664 0.908409 0.906437 0.904773 0.903439 0.902457 0.901843 0.901613 1.02287 1.02287 1.02302 1.02331 1.02371 1.02421 1.0248 1.02546 1.02618 1.02694 1.02772 1.02851 1.02931 1.0301 1.0309 1.03168 1.03244 1.03317 1.03388 1.03453 1.03513 1.03567 1.03614 1.03655 1.0369 1.0372 1.03744 1.03764 1.03779 1.03788 1.03792 1.03792 1.03786 1.03776 1.03761 1.03744 1.03722 1.03698 1.03671 1.03641 1.0361 1.03576 1.03541 1.03504 1.03465 1.03425 1.03385 1.03343 1.03301 1.03258 1.03215 1.03172 1.03129 1.03086 1.03043 1.03001 1.02958 1.02917 1.02875 1.02835 1.02795 1.02755 1.02717 1.0268 1.02643 1.02607 1.02572 1.02538 1.02505 1.02472 1.02441 1.02411 1.02382 1.02353 1.02326 1.023 1.02275 1.02251 1.02228 1.02206 1.02185 1.02165 1.02146 1.02128 1.02111 1.02095 1.0208 1.02066 1.02054 1.02042 1.02031 1.02021 1.02012 1.02004 1.01998 1.01992 1.01987 1.01983 1.0198 1.01979 1.01977 1.01976 1.01975 1.01974 1.01973 1.01971 1.01969 1.01967 1.01965 1.01962 1.01959 1.01955 1.01951 1.01947 1.01942 1.01937 1.01931 1.01925 1.01919 1.01911 1.01903 1.01895 1.01885 1.01875 1.01863 1.01851 1.01838 1.01823 1.01808 1.01791 1.01773 1.01753 1.01732 1.01709 1.01684 1.01658 1.01629 1.01599 1.01566 1.0153 1.01492 1.0145 1.01406 1.01358 1.01306 1.01251 1.01191 1.01128 1.0106 1.00988 1.00911 1.00829 1.00741 1.00647 1.00547 1.0044 1.00325 1.00204 1.00075 0.999387 0.997946 0.996419 0.994798 0.993078 0.991253 0.989323 0.987285 0.985142 0.982898 0.980557 0.978122 0.975587 0.972945 0.970193 0.967328 0.964356 0.96128 0.95811 0.954858 0.951537 0.948165 0.944753 0.941315 0.937866 0.934425 0.93101 0.927643 0.924348 0.92115 0.918074 0.915151 0.912417 0.909905 0.907648 0.905672 0.904005 0.90267 0.901685 0.901069 0.900837 1.02307 1.02307 1.02323 1.02351 1.02391 1.02441 1.025 1.02566 1.02638 1.02714 1.02792 1.02872 1.02951 1.03031 1.03111 1.03189 1.03265 1.0334 1.0341 1.03476 1.03537 1.03591 1.03638 1.0368 1.03716 1.03746 1.03771 1.03791 1.03806 1.03816 1.03821 1.03821 1.03816 1.03806 1.03792 1.03775 1.03754 1.0373 1.03703 1.03674 1.03642 1.03609 1.03574 1.03537 1.03498 1.03458 1.03418 1.03376 1.03334 1.03291 1.03248 1.03204 1.03161 1.03118 1.03075 1.03033 1.0299 1.02948 1.02907 1.02866 1.02825 1.02786 1.02747 1.02709 1.02672 1.02636 1.02601 1.02566 1.02533 1.025 1.02469 1.02438 1.02408 1.0238 1.02352 1.02326 1.02301 1.02276 1.02253 1.0223 1.02209 1.02189 1.02169 1.02151 1.02134 1.02118 1.02103 1.02089 1.02076 1.02063 1.02052 1.02042 1.02033 1.02025 1.02018 1.02012 1.02007 1.02003 1.02 1.01998 1.01996 1.01995 1.01994 1.01992 1.01991 1.01989 1.01987 1.01985 1.01982 1.01979 1.01975 1.01972 1.01967 1.01963 1.01958 1.01953 1.01947 1.0194 1.01933 1.01926 1.01917 1.01908 1.01898 1.01888 1.01876 1.01863 1.0185 1.01835 1.01819 1.01802 1.01783 1.01763 1.01741 1.01718 1.01692 1.01665 1.01636 1.01604 1.0157 1.01534 1.01495 1.01453 1.01407 1.01358 1.01306 1.01249 1.01189 1.01124 1.01055 1.00982 1.00903 1.0082 1.00731 1.00636 1.00534 1.00425 1.00309 1.00186 1.00055 0.999168 0.997708 0.996162 0.994522 0.992781 0.990936 0.988985 0.986927 0.984763 0.982497 0.980133 0.977677 0.97512 0.972456 0.969681 0.966796 0.963802 0.960706 0.957517 0.954245 0.950907 0.947517 0.944089 0.940635 0.937173 0.933718 0.930292 0.926915 0.923611 0.920404 0.917322 0.914393 0.911654 0.909138 0.906877 0.904899 0.903229 0.901891 0.900905 0.900287 0.900052 1.02328 1.02328 1.02343 1.02372 1.02412 1.02462 1.02521 1.02587 1.02659 1.02734 1.02813 1.02892 1.02972 1.03052 1.03132 1.0321 1.03287 1.03362 1.03433 1.035 1.03561 1.03615 1.03663 1.03705 1.03742 1.03773 1.03798 1.03819 1.03835 1.03845 1.03851 1.03851 1.03846 1.03837 1.03824 1.03806 1.03786 1.03762 1.03736 1.03707 1.03675 1.03642 1.03607 1.0357 1.03532 1.03492 1.03451 1.03409 1.03367 1.03324 1.03281 1.03237 1.03194 1.03151 1.03108 1.03065 1.03022 1.0298 1.02938 1.02897 1.02856 1.02817 1.02778 1.0274 1.02702 1.02666 1.0263 1.02595 1.02561 1.02528 1.02496 1.02465 1.02436 1.02407 1.02379 1.02352 1.02326 1.02302 1.02278 1.02255 1.02234 1.02213 1.02194 1.02175 1.02158 1.02141 1.02126 1.02111 1.02098 1.02085 1.02074 1.02064 1.02054 1.02046 1.02039 1.02033 1.02027 1.02023 1.0202 1.02018 1.02015 1.02014 1.02013 1.02011 1.02009 1.02007 1.02005 1.02003 1.02 1.01996 1.01993 1.01989 1.01984 1.01979 1.01974 1.01968 1.01962 1.01956 1.01948 1.0194 1.01932 1.01922 1.01912 1.01901 1.01889 1.01876 1.01862 1.01847 1.0183 1.01813 1.01793 1.01773 1.0175 1.01726 1.017 1.01672 1.01642 1.0161 1.01575 1.01538 1.01498 1.01455 1.01408 1.01359 1.01305 1.01248 1.01186 1.0112 1.0105 1.00975 1.00896 1.00811 1.0072 1.00624 1.0052 1.0041 1.00292 1.00167 1.00035 0.998945 0.997465 0.9959 0.994239 0.992479 0.990613 0.988641 0.986562 0.984376 0.982088 0.979703 0.977224 0.974645 0.971959 0.969162 0.966255 0.963241 0.960124 0.956915 0.953625 0.950268 0.946861 0.943416 0.939947 0.93647 0.933003 0.929565 0.926178 0.922864 0.91965 0.91656 0.913626 0.910882 0.908362 0.906097 0.904116 0.902445 0.901104 0.900115 0.899495 0.899258 1.02349 1.02349 1.02364 1.02393 1.02432 1.02483 1.02541 1.02607 1.02679 1.02755 1.02833 1.02913 1.02993 1.03073 1.03153 1.03232 1.0331 1.03385 1.03456 1.03523 1.03585 1.0364 1.03688 1.03731 1.03768 1.03799 1.03826 1.03847 1.03863 1.03874 1.0388 1.03881 1.03877 1.03868 1.03855 1.03838 1.03818 1.03795 1.03769 1.0374 1.03709 1.03676 1.03641 1.03604 1.03565 1.03526 1.03485 1.03443 1.03401 1.03358 1.03314 1.03271 1.03227 1.03184 1.03141 1.03098 1.03055 1.03012 1.0297 1.02929 1.02888 1.02848 1.02809 1.0277 1.02733 1.02696 1.0266 1.02625 1.0259 1.02557 1.02525 1.02493 1.02463 1.02434 1.02406 1.02379 1.02353 1.02328 1.02304 1.02281 1.02259 1.02238 1.02218 1.02199 1.02181 1.02165 1.02149 1.02134 1.0212 1.02108 1.02096 1.02085 1.02076 1.02067 1.0206 1.02053 1.02048 1.02043 1.0204 1.02038 1.02035 1.02033 1.02032 1.0203 1.02028 1.02026 1.02023 1.02021 1.02018 1.02014 1.0201 1.02006 1.02001 1.01996 1.0199 1.01985 1.01978 1.01971 1.01964 1.01955 1.01946 1.01936 1.01926 1.01914 1.01902 1.01889 1.01874 1.01859 1.01842 1.01823 1.01804 1.01782 1.01759 1.01735 1.01708 1.01679 1.01649 1.01615 1.0158 1.01542 1.01501 1.01457 1.0141 1.01359 1.01304 1.01246 1.01183 1.01116 1.01045 1.00969 1.00888 1.00802 1.0071 1.00611 1.00506 1.00394 1.00275 1.00148 1.00014 0.998716 0.997217 0.995632 0.993952 0.992171 0.990284 0.988291 0.98619 0.983983 0.981673 0.979265 0.976764 0.974162 0.971454 0.968635 0.965707 0.962671 0.959534 0.956305 0.952996 0.949621 0.946196 0.942734 0.93925 0.935759 0.932279 0.928829 0.925431 0.922108 0.918886 0.91579 0.91285 0.910101 0.907577 0.905309 0.903325 0.90165 0.900308 0.899317 0.898694 0.898455 1.0237 1.02371 1.02386 1.02414 1.02454 1.02504 1.02562 1.02628 1.027 1.02776 1.02854 1.02934 1.03014 1.03095 1.03175 1.03255 1.03332 1.03408 1.03479 1.03547 1.03609 1.03665 1.03714 1.03757 1.03794 1.03827 1.03854 1.03875 1.03892 1.03904 1.0391 1.03912 1.03908 1.03899 1.03887 1.03871 1.03851 1.03828 1.03802 1.03773 1.03743 1.0371 1.03675 1.03638 1.036 1.0356 1.03519 1.03477 1.03435 1.03392 1.03348 1.03305 1.03261 1.03218 1.03174 1.03131 1.03088 1.03045 1.03003 1.02961 1.0292 1.0288 1.0284 1.02801 1.02763 1.02726 1.0269 1.02654 1.0262 1.02586 1.02553 1.02522 1.02491 1.02462 1.02433 1.02406 1.0238 1.02354 1.0233 1.02306 1.02284 1.02263 1.02243 1.02224 1.02206 1.02188 1.02172 1.02157 1.02143 1.0213 1.02119 1.02108 1.02098 1.02089 1.02081 1.02075 1.02069 1.02064 1.0206 1.02058 1.02055 1.02053 1.02051 1.02049 1.02047 1.02045 1.02042 1.02039 1.02036 1.02032 1.02028 1.02023 1.02018 1.02013 1.02007 1.02001 1.01994 1.01987 1.01979 1.0197 1.01961 1.01951 1.0194 1.01928 1.01915 1.01901 1.01886 1.0187 1.01853 1.01834 1.01814 1.01792 1.01769 1.01743 1.01716 1.01686 1.01655 1.01621 1.01585 1.01546 1.01504 1.01459 1.01411 1.01359 1.01303 1.01244 1.0118 1.01112 1.01039 1.00962 1.0088 1.00792 1.00699 1.00599 1.00492 1.00378 1.00257 1.00128 0.999922 0.998483 0.996964 0.995359 0.993658 0.991856 0.989949 0.987934 0.985811 0.983582 0.98125 0.97882 0.976296 0.973672 0.970941 0.9681 0.96515 0.962093 0.958935 0.955686 0.952358 0.948964 0.945522 0.942044 0.938544 0.935039 0.931545 0.928084 0.924675 0.921343 0.918113 0.91501 0.912064 0.90931 0.906782 0.904511 0.902524 0.900847 0.899502 0.898509 0.897884 0.897643 1.02392 1.02392 1.02407 1.02435 1.02475 1.02525 1.02584 1.0265 1.02721 1.02797 1.02876 1.02956 1.03036 1.03117 1.03197 1.03277 1.03355 1.03431 1.03503 1.03571 1.03634 1.0369 1.03739 1.03783 1.03821 1.03854 1.03882 1.03904 1.03921 1.03934 1.03941 1.03942 1.03939 1.03931 1.03919 1.03903 1.03884 1.03861 1.03836 1.03807 1.03777 1.03744 1.03709 1.03672 1.03634 1.03595 1.03554 1.03512 1.03469 1.03426 1.03383 1.03339 1.03295 1.03252 1.03208 1.03164 1.03121 1.03078 1.03036 1.02994 1.02952 1.02912 1.02872 1.02833 1.02795 1.02757 1.0272 1.02685 1.0265 1.02616 1.02583 1.02551 1.0252 1.0249 1.02461 1.02433 1.02407 1.02381 1.02356 1.02333 1.0231 1.02288 1.02268 1.02248 1.0223 1.02213 1.02196 1.02181 1.02167 1.02153 1.02141 1.0213 1.0212 1.02111 1.02103 1.02096 1.0209 1.02085 1.02081 1.02078 1.02075 1.02073 1.02071 1.02069 1.02066 1.02064 1.02061 1.02058 1.02054 1.0205 1.02046 1.02041 1.02036 1.0203 1.02024 1.02017 1.0201 1.02003 1.01995 1.01986 1.01976 1.01965 1.01954 1.01942 1.01928 1.01914 1.01899 1.01882 1.01864 1.01845 1.01824 1.01802 1.01778 1.01752 1.01724 1.01694 1.01661 1.01627 1.01589 1.0155 1.01507 1.01461 1.01412 1.01359 1.01302 1.01242 1.01177 1.01107 1.01033 1.00955 1.00871 1.00782 1.00687 1.00586 1.00477 1.00362 1.00239 1.00108 0.999703 0.998244 0.996706 0.99508 0.993359 0.991536 0.989607 0.987571 0.985426 0.983175 0.98082 0.978367 0.975821 0.973173 0.97042 0.967557 0.964584 0.961506 0.958327 0.955058 0.951711 0.948299 0.944839 0.941344 0.937829 0.934309 0.930802 0.927329 0.92391 0.920569 0.917331 0.914221 0.911269 0.90851 0.905978 0.903703 0.901713 0.900034 0.898686 0.897691 0.897065 0.896821 1.02414 1.02414 1.02429 1.02457 1.02497 1.02547 1.02605 1.02671 1.02743 1.02819 1.02897 1.02977 1.03058 1.03139 1.0322 1.033 1.03378 1.03454 1.03527 1.03596 1.03659 1.03715 1.03765 1.0381 1.03849 1.03882 1.0391 1.03933 1.03951 1.03964 1.03971 1.03974 1.03971 1.03963 1.03952 1.03936 1.03917 1.03895 1.0387 1.03842 1.03811 1.03779 1.03744 1.03707 1.03669 1.0363 1.03589 1.03547 1.03504 1.03461 1.03418 1.03374 1.0333 1.03286 1.03242 1.03199 1.03155 1.03112 1.03069 1.03027 1.02985 1.02944 1.02904 1.02865 1.02826 1.02788 1.02751 1.02715 1.0268 1.02646 1.02612 1.0258 1.02549 1.02519 1.0249 1.02461 1.02434 1.02408 1.02383 1.02359 1.02336 1.02314 1.02293 1.02274 1.02255 1.02237 1.02221 1.02205 1.0219 1.02177 1.02164 1.02153 1.02143 1.02133 1.02125 1.02118 1.02112 1.02106 1.02102 1.02099 1.02095 1.02093 1.02091 1.02088 1.02086 1.02083 1.0208 1.02076 1.02073 1.02068 1.02064 1.02059 1.02053 1.02047 1.02041 1.02034 1.02027 1.02019 1.0201 1.02001 1.01991 1.0198 1.01968 1.01955 1.01942 1.01927 1.01911 1.01894 1.01876 1.01856 1.01835 1.01812 1.01787 1.0176 1.01731 1.01701 1.01668 1.01632 1.01594 1.01553 1.0151 1.01463 1.01413 1.01359 1.01301 1.01239 1.01173 1.01103 1.01027 1.00947 1.00862 1.00772 1.00675 1.00572 1.00462 1.00345 1.0022 1.00088 0.999478 0.998 0.996441 0.994795 0.993053 0.991209 0.989259 0.9872 0.985033 0.98276 0.980382 0.977907 0.975337 0.972667 0.96989 0.967004 0.96401 0.96091 0.957711 0.954422 0.951054 0.947624 0.944146 0.940635 0.937104 0.933569 0.93005 0.926564 0.923135 0.919785 0.916538 0.913422 0.910464 0.907701 0.905164 0.902886 0.900893 0.899211 0.897861 0.896864 0.896235 0.895989 1.02436 1.02436 1.02451 1.02479 1.02519 1.02569 1.02627 1.02693 1.02765 1.02841 1.02919 1.02999 1.0308 1.03161 1.03242 1.03323 1.03402 1.03478 1.03551 1.0362 1.03684 1.03741 1.03792 1.03837 1.03876 1.0391 1.03939 1.03962 1.03981 1.03994 1.04002 1.04005 1.04003 1.03996 1.03985 1.0397 1.03951 1.03929 1.03904 1.03876 1.03846 1.03814 1.03779 1.03743 1.03705 1.03665 1.03625 1.03583 1.0354 1.03497 1.03453 1.03409 1.03365 1.03321 1.03277 1.03233 1.03189 1.03146 1.03103 1.0306 1.03018 1.02977 1.02937 1.02897 1.02858 1.0282 1.02783 1.02746 1.02711 1.02676 1.02642 1.0261 1.02578 1.02548 1.02518 1.0249 1.02462 1.02436 1.0241 1.02386 1.02363 1.0234 1.02319 1.02299 1.0228 1.02262 1.02245 1.02229 1.02214 1.02201 1.02188 1.02176 1.02165 1.02156 1.02147 1.0214 1.02133 1.02128 1.02123 1.0212 1.02116 1.02114 1.02111 1.02109 1.02106 1.02103 1.02099 1.02096 1.02091 1.02087 1.02082 1.02077 1.02071 1.02065 1.02058 1.02051 1.02043 1.02035 1.02026 1.02017 1.02006 1.01995 1.01983 1.01969 1.01955 1.0194 1.01924 1.01906 1.01888 1.01867 1.01845 1.01822 1.01796 1.01769 1.01739 1.01708 1.01674 1.01638 1.01599 1.01557 1.01512 1.01465 1.01413 1.01359 1.013 1.01237 1.01169 1.01097 1.01021 1.0094 1.00853 1.00761 1.00663 1.00558 1.00447 1.00328 1.00201 1.00067 0.999249 0.99775 0.996171 0.994504 0.992741 0.990875 0.988903 0.986823 0.984634 0.982337 0.979937 0.977438 0.974845 0.972152 0.969352 0.966444 0.963427 0.960305 0.957085 0.953775 0.950389 0.946939 0.943444 0.939915 0.936369 0.93282 0.929287 0.92579 0.92235 0.918991 0.915736 0.912613 0.90965 0.906881 0.904341 0.902059 0.900063 0.898378 0.897026 0.896026 0.895396 0.895148 1.02458 1.02459 1.02474 1.02502 1.02541 1.02591 1.02649 1.02715 1.02787 1.02863 1.02941 1.03021 1.03103 1.03184 1.03265 1.03346 1.03425 1.03502 1.03576 1.03645 1.03709 1.03767 1.03818 1.03864 1.03904 1.03938 1.03968 1.03992 1.04011 1.04025 1.04034 1.04037 1.04035 1.04029 1.04018 1.04003 1.03985 1.03964 1.03939 1.03912 1.03882 1.03849 1.03815 1.03779 1.03741 1.03701 1.03661 1.03619 1.03576 1.03533 1.03489 1.03445 1.03401 1.03356 1.03312 1.03268 1.03224 1.03181 1.03137 1.03094 1.03052 1.03011 1.0297 1.0293 1.02891 1.02852 1.02815 1.02778 1.02742 1.02707 1.02673 1.0264 1.02608 1.02577 1.02547 1.02519 1.02491 1.02464 1.02438 1.02413 1.0239 1.02367 1.02346 1.02325 1.02306 1.02288 1.0227 1.02254 1.02239 1.02225 1.02212 1.022 1.02189 1.02179 1.0217 1.02162 1.02156 1.0215 1.02145 1.02142 1.02137 1.02134 1.02132 1.02129 1.02126 1.02122 1.02119 1.02115 1.02111 1.02106 1.02101 1.02095 1.02089 1.02083 1.02076 1.02068 1.0206 1.02052 1.02042 1.02032 1.02021 1.0201 1.01997 1.01984 1.01969 1.01953 1.01937 1.01919 1.01899 1.01878 1.01856 1.01831 1.01805 1.01777 1.01747 1.01715 1.0168 1.01643 1.01603 1.01561 1.01515 1.01466 1.01414 1.01358 1.01298 1.01234 1.01165 1.01092 1.01014 1.00931 1.00844 1.0075 1.0065 1.00544 1.00431 1.0031 1.00181 1.00045 0.999013 0.997494 0.995895 0.994207 0.992422 0.990535 0.988541 0.986438 0.984226 0.981907 0.979484 0.976962 0.974345 0.971628 0.968805 0.965874 0.962835 0.959691 0.95645 0.95312 0.949713 0.946245 0.942732 0.939187 0.935624 0.932061 0.928515 0.925006 0.921556 0.918187 0.914924 0.911794 0.908825 0.906052 0.903507 0.901221 0.899222 0.897535 0.896181 0.895179 0.894546 0.894296 1.02481 1.02482 1.02497 1.02524 1.02564 1.02614 1.02672 1.02738 1.02809 1.02885 1.02964 1.03044 1.03125 1.03207 1.03289 1.0337 1.03449 1.03527 1.03601 1.03671 1.03735 1.03793 1.03845 1.03891 1.03932 1.03967 1.03997 1.04022 1.04042 1.04056 1.04065 1.04069 1.04068 1.04062 1.04052 1.04038 1.0402 1.03998 1.03974 1.03947 1.03917 1.03885 1.03851 1.03815 1.03777 1.03738 1.03697 1.03655 1.03612 1.03569 1.03525 1.03481 1.03437 1.03392 1.03348 1.03304 1.0326 1.03216 1.03172 1.03129 1.03087 1.03045 1.03004 1.02963 1.02924 1.02885 1.02847 1.0281 1.02774 1.02738 1.02704 1.02671 1.02638 1.02607 1.02577 1.02548 1.0252 1.02492 1.02466 1.02441 1.02417 1.02394 1.02372 1.02352 1.02332 1.02313 1.02296 1.02279 1.02264 1.02249 1.02236 1.02224 1.02212 1.02202 1.02193 1.02185 1.02178 1.02172 1.02167 1.02163 1.02158 1.02155 1.02153 1.0215 1.02146 1.02143 1.02139 1.02134 1.0213 1.02125 1.02119 1.02114 1.02107 1.02101 1.02093 1.02086 1.02077 1.02068 1.02059 1.02048 1.02037 1.02025 1.02012 1.01998 1.01983 1.01967 1.01949 1.01931 1.01911 1.01889 1.01866 1.01841 1.01814 1.01786 1.01755 1.01722 1.01686 1.01648 1.01608 1.01564 1.01518 1.01468 1.01414 1.01357 1.01296 1.01231 1.01161 1.01087 1.01007 1.00923 1.00834 1.00739 1.00637 1.00529 1.00414 1.00291 1.00161 1.00023 0.998772 0.997233 0.995613 0.993904 0.992097 0.990188 0.988172 0.986046 0.983811 0.981469 0.979022 0.976477 0.973836 0.971096 0.968249 0.965295 0.962233 0.959068 0.955805 0.952454 0.949028 0.945541 0.94201 0.938448 0.93487 0.931292 0.927732 0.924212 0.920751 0.917373 0.914102 0.910965 0.90799 0.905212 0.902663 0.900374 0.898372 0.896682 0.895325 0.894321 0.893686 0.893434 1.02504 1.02505 1.0252 1.02548 1.02587 1.02636 1.02695 1.0276 1.02832 1.02908 1.02987 1.03067 1.03148 1.0323 1.03312 1.03394 1.03474 1.03551 1.03626 1.03696 1.03761 1.0382 1.03873 1.03919 1.0396 1.03996 1.04027 1.04052 1.04073 1.04088 1.04098 1.04102 1.04101 1.04096 1.04086 1.04072 1.04055 1.04034 1.0401 1.03983 1.03954 1.03922 1.03888 1.03852 1.03814 1.03775 1.03734 1.03692 1.03649 1.03606 1.03562 1.03518 1.03473 1.03429 1.03384 1.0334 1.03295 1.03251 1.03208 1.03164 1.03121 1.03079 1.03038 1.02997 1.02957 1.02918 1.0288 1.02843 1.02806 1.0277 1.02736 1.02702 1.02669 1.02638 1.02607 1.02578 1.02549 1.02521 1.02495 1.0247 1.02445 1.02422 1.024 1.02379 1.02359 1.0234 1.02322 1.02305 1.02289 1.02274 1.02261 1.02248 1.02236 1.02226 1.02217 1.02208 1.02201 1.02195 1.0219 1.02185 1.0218 1.02177 1.02174 1.0217 1.02167 1.02163 1.02159 1.02154 1.0215 1.02144 1.02139 1.02132 1.02126 1.02119 1.02111 1.02103 1.02095 1.02085 1.02075 1.02064 1.02053 1.0204 1.02027 1.02012 1.01997 1.0198 1.01962 1.01943 1.01923 1.019 1.01877 1.01851 1.01824 1.01794 1.01763 1.01729 1.01692 1.01654 1.01612 1.01567 1.0152 1.01469 1.01415 1.01357 1.01294 1.01228 1.01156 1.01081 1.01 1.00914 1.00823 1.00727 1.00624 1.00514 1.00397 1.00273 1.00141 1.00001 0.998526 0.996966 0.995325 0.993594 0.991766 0.989834 0.987795 0.985646 0.983388 0.981023 0.978552 0.975983 0.973319 0.970554 0.967684 0.964707 0.961622 0.958435 0.95515 0.951779 0.948333 0.944828 0.941278 0.937699 0.934105 0.930512 0.92694 0.923407 0.919935 0.916548 0.91327 0.910126 0.907145 0.904361 0.901808 0.899516 0.897511 0.895818 0.894459 0.893453 0.892816 0.892562 1.02528 1.02528 1.02543 1.02571 1.0261 1.0266 1.02718 1.02784 1.02855 1.02931 1.0301 1.0309 1.03172 1.03254 1.03336 1.03418 1.03498 1.03576 1.03651 1.03722 1.03788 1.03847 1.039 1.03947 1.03989 1.04026 1.04057 1.04083 1.04104 1.0412 1.0413 1.04135 1.04135 1.0413 1.0412 1.04107 1.0409 1.0407 1.04046 1.04019 1.0399 1.03959 1.03925 1.03889 1.03851 1.03812 1.03772 1.0373 1.03687 1.03643 1.03599 1.03555 1.0351 1.03466 1.03421 1.03376 1.03332 1.03287 1.03243 1.032 1.03157 1.03114 1.03073 1.03032 1.02992 1.02952 1.02913 1.02876 1.02839 1.02803 1.02768 1.02734 1.02701 1.02669 1.02638 1.02608 1.02579 1.02551 1.02524 1.02498 1.02474 1.0245 1.02427 1.02406 1.02386 1.02366 1.02348 1.02331 1.02315 1.023 1.02286 1.02273 1.02261 1.0225 1.0224 1.02232 1.02224 1.02218 1.02212 1.02208 1.02202 1.02199 1.02195 1.02192 1.02188 1.02184 1.02179 1.02175 1.02169 1.02164 1.02158 1.02151 1.02145 1.02137 1.02129 1.02121 1.02112 1.02102 1.02092 1.02081 1.02069 1.02056 1.02042 1.02027 1.02011 1.01994 1.01975 1.01955 1.01934 1.01912 1.01887 1.01861 1.01833 1.01803 1.0177 1.01736 1.01698 1.01659 1.01616 1.01571 1.01522 1.0147 1.01415 1.01355 1.01292 1.01224 1.01152 1.01074 1.00992 1.00905 1.00813 1.00715 1.0061 1.00498 1.0038 1.00253 1.00119 0.999774 0.998273 0.996693 0.99503 0.993277 0.991427 0.989473 0.987411 0.985239 0.982958 0.980568 0.978074 0.975481 0.972792 0.970004 0.96711 0.964109 0.961002 0.957792 0.954486 0.951094 0.947628 0.944103 0.940536 0.936939 0.933329 0.929722 0.926136 0.922592 0.919109 0.915713 0.912426 0.909276 0.906289 0.903501 0.900943 0.898647 0.896639 0.894944 0.893582 0.892574 0.891935 0.891679 1.02552 1.02552 1.02567 1.02595 1.02634 1.02683 1.02741 1.02807 1.02878 1.02954 1.03033 1.03114 1.03196 1.03278 1.03361 1.03443 1.03523 1.03602 1.03677 1.03748 1.03815 1.03874 1.03928 1.03976 1.04018 1.04055 1.04087 1.04114 1.04136 1.04152 1.04163 1.04168 1.04169 1.04164 1.04155 1.04143 1.04126 1.04106 1.04082 1.04056 1.04027 1.03996 1.03962 1.03927 1.03889 1.0385 1.03809 1.03768 1.03725 1.03681 1.03637 1.03593 1.03548 1.03503 1.03458 1.03413 1.03369 1.03324 1.0328 1.03236 1.03192 1.0315 1.03108 1.03067 1.03026 1.02986 1.02947 1.02909 1.02872 1.02835 1.028 1.02766 1.02732 1.027 1.02669 1.02638 1.02609 1.02581 1.02554 1.02527 1.02502 1.02478 1.02455 1.02434 1.02413 1.02393 1.02375 1.02357 1.02341 1.02325 1.02311 1.02298 1.02286 1.02275 1.02265 1.02256 1.02248 1.02241 1.02235 1.02231 1.02224 1.02221 1.02217 1.02213 1.02209 1.02205 1.022 1.02195 1.0219 1.02184 1.02177 1.02171 1.02164 1.02156 1.02148 1.02139 1.0213 1.0212 1.02109 1.02097 1.02085 1.02071 1.02057 1.02041 1.02025 1.02007 1.01988 1.01968 1.01946 1.01923 1.01898 1.01871 1.01842 1.01811 1.01778 1.01742 1.01704 1.01664 1.0162 1.01574 1.01524 1.01471 1.01415 1.01354 1.01289 1.0122 1.01147 1.01068 1.00984 1.00896 1.00802 1.00702 1.00596 1.00482 1.00362 1.00234 1.00098 0.999536 0.998015 0.996413 0.994729 0.992954 0.991081 0.989104 0.987019 0.984824 0.982519 0.980105 0.977587 0.974969 0.972257 0.969444 0.966526 0.963502 0.960371 0.957139 0.953812 0.950399 0.946913 0.943369 0.939783 0.936169 0.932543 0.928922 0.925322 0.921766 0.918273 0.914867 0.911572 0.908415 0.905422 0.902629 0.900067 0.897768 0.895757 0.894058 0.892695 0.891684 0.891043 0.890785 1.02576 1.02577 1.02591 1.02619 1.02658 1.02707 1.02765 1.02831 1.02902 1.02978 1.03057 1.03138 1.0322 1.03302 1.03385 1.03468 1.03549 1.03627 1.03703 1.03775 1.03842 1.03902 1.03956 1.04005 1.04048 1.04085 1.04118 1.04145 1.04168 1.04185 1.04196 1.04202 1.04203 1.04199 1.04191 1.04178 1.04162 1.04142 1.04119 1.04094 1.04065 1.04034 1.04 1.03965 1.03928 1.03888 1.03848 1.03806 1.03763 1.0372 1.03676 1.03631 1.03586 1.03541 1.03496 1.03451 1.03406 1.03361 1.03317 1.03272 1.03229 1.03186 1.03144 1.03102 1.03061 1.03021 1.02982 1.02943 1.02906 1.02869 1.02833 1.02798 1.02765 1.02732 1.027 1.0267 1.0264 1.02611 1.02584 1.02557 1.02532 1.02507 1.02484 1.02462 1.02441 1.02421 1.02402 1.02384 1.02367 1.02351 1.02337 1.02323 1.02311 1.02299 1.02289 1.0228 1.02272 1.02265 1.02259 1.02254 1.02247 1.02243 1.02239 1.02235 1.02231 1.02226 1.02221 1.02216 1.0221 1.02204 1.02197 1.0219 1.02183 1.02175 1.02166 1.02157 1.02147 1.02137 1.02126 1.02114 1.02101 1.02087 1.02072 1.02056 1.02039 1.02021 1.02001 1.01981 1.01958 1.01934 1.01908 1.01881 1.01851 1.0182 1.01786 1.01749 1.0171 1.01669 1.01624 1.01577 1.01526 1.01472 1.01415 1.01353 1.01287 1.01216 1.01141 1.01061 1.00976 1.00886 1.0079 1.00689 1.00581 1.00466 1.00343 1.00213 1.00075 0.999293 0.997751 0.996127 0.994421 0.992624 0.990728 0.988728 0.986619 0.984401 0.982071 0.979634 0.977091 0.974449 0.971712 0.968875 0.965933 0.962885 0.959731 0.956476 0.953127 0.949693 0.946187 0.942624 0.939019 0.935389 0.931747 0.92811 0.924497 0.920929 0.917425 0.91401 0.910707 0.907543 0.904544 0.901746 0.89918 0.896877 0.894863 0.893162 0.891796 0.890784 0.89014 0.88988 1.02601 1.02601 1.02616 1.02643 1.02682 1.02732 1.0279 1.02855 1.02926 1.03002 1.03081 1.03162 1.03244 1.03327 1.0341 1.03493 1.03574 1.03654 1.0373 1.03802 1.03869 1.0393 1.03985 1.04034 1.04078 1.04116 1.04149 1.04177 1.042 1.04218 1.0423 1.04236 1.04238 1.04234 1.04227 1.04215 1.04199 1.04179 1.04157 1.04131 1.04103 1.04072 1.04039 1.04004 1.03966 1.03927 1.03887 1.03845 1.03802 1.03759 1.03714 1.0367 1.03625 1.0358 1.03535 1.03489 1.03444 1.03399 1.03354 1.0331 1.03266 1.03222 1.0318 1.03138 1.03097 1.03056 1.03017 1.02978 1.0294 1.02903 1.02867 1.02831 1.02797 1.02764 1.02732 1.02701 1.02671 1.02642 1.02614 1.02587 1.02561 1.02537 1.02513 1.02491 1.02469 1.02449 1.02429 1.02411 1.02394 1.02378 1.02363 1.02349 1.02336 1.02325 1.02314 1.02305 1.02296 1.02289 1.02283 1.02277 1.0227 1.02266 1.02262 1.02257 1.02253 1.02248 1.02242 1.02237 1.02231 1.02224 1.02217 1.0221 1.02202 1.02194 1.02185 1.02176 1.02166 1.02155 1.02143 1.02131 1.02117 1.02103 1.02088 1.02071 1.02054 1.02035 1.02015 1.01993 1.0197 1.01946 1.01919 1.01891 1.01861 1.01828 1.01793 1.01756 1.01716 1.01674 1.01628 1.0158 1.01528 1.01473 1.01414 1.01351 1.01284 1.01212 1.01135 1.01054 1.00968 1.00876 1.00779 1.00675 1.00565 1.00449 1.00324 1.00192 1.00052 0.999043 0.99748 0.995834 0.994106 0.992286 0.990367 0.988344 0.986212 0.983969 0.981616 0.979154 0.976587 0.97392 0.971158 0.968296 0.96533 0.962258 0.959081 0.955803 0.952432 0.948977 0.945451 0.941868 0.938245 0.934597 0.930939 0.927288 0.923661 0.920081 0.916567 0.913142 0.909831 0.90666 0.903656 0.900852 0.898282 0.895975 0.893958 0.892255 0.890886 0.889872 0.889226 0.888964 1.02626 1.02626 1.02641 1.02668 1.02707 1.02756 1.02814 1.02879 1.02951 1.03027 1.03106 1.03187 1.03269 1.03352 1.03436 1.03518 1.036 1.0368 1.03757 1.03829 1.03897 1.03958 1.04014 1.04064 1.04108 1.04147 1.04181 1.04209 1.04233 1.04251 1.04264 1.04271 1.04273 1.0427 1.04263 1.04251 1.04236 1.04217 1.04195 1.0417 1.04142 1.04111 1.04078 1.04043 1.04006 1.03967 1.03926 1.03885 1.03842 1.03798 1.03754 1.03709 1.03664 1.03619 1.03573 1.03528 1.03482 1.03437 1.03392 1.03347 1.03303 1.0326 1.03217 1.03175 1.03133 1.03092 1.03052 1.03013 1.02975 1.02937 1.02901 1.02865 1.02831 1.02797 1.02765 1.02733 1.02703 1.02674 1.02645 1.02618 1.02592 1.02566 1.02543 1.0252 1.02498 1.02477 1.02457 1.02439 1.02421 1.02405 1.0239 1.02375 1.02362 1.0235 1.0234 1.0233 1.02321 1.02313 1.02307 1.02301 1.02293 1.02289 1.02285 1.0228 1.02275 1.0227 1.02264 1.02258 1.02252 1.02245 1.02238 1.0223 1.02222 1.02213 1.02204 1.02194 1.02184 1.02173 1.02161 1.02148 1.02134 1.02119 1.02103 1.02086 1.02068 1.02049 1.02028 1.02006 1.01982 1.01957 1.0193 1.01901 1.0187 1.01836 1.01801 1.01763 1.01722 1.01679 1.01632 1.01583 1.0153 1.01474 1.01413 1.01349 1.01281 1.01207 1.0113 1.01047 1.00959 1.00865 1.00766 1.00661 1.0055 1.00431 1.00305 1.00171 1.00029 0.998787 0.997203 0.995535 0.993784 0.991941 0.989999 0.987952 0.985796 0.983529 0.981151 0.978665 0.976073 0.973381 0.970594 0.967708 0.964717 0.96162 0.95842 0.955119 0.951726 0.94825 0.944703 0.941101 0.93746 0.933794 0.93012 0.926454 0.922814 0.919221 0.915697 0.912263 0.908944 0.905765 0.902755 0.899947 0.897373 0.895062 0.893042 0.891336 0.889965 0.888948 0.888301 0.888037 1.02651 1.02651 1.02666 1.02693 1.02732 1.02781 1.02839 1.02904 1.02976 1.03052 1.03131 1.03212 1.03294 1.03378 1.03461 1.03544 1.03627 1.03707 1.03784 1.03857 1.03925 1.03987 1.04043 1.04094 1.04138 1.04178 1.04212 1.04242 1.04266 1.04285 1.04298 1.04306 1.04309 1.04306 1.04299 1.04288 1.04273 1.04255 1.04233 1.04208 1.04181 1.0415 1.04117 1.04082 1.04045 1.04007 1.03966 1.03925 1.03882 1.03838 1.03794 1.03749 1.03704 1.03658 1.03613 1.03567 1.03522 1.03476 1.03431 1.03386 1.03341 1.03297 1.03254 1.03212 1.0317 1.03129 1.03088 1.03049 1.0301 1.02972 1.02935 1.0