<?xml version="1.0"?> 
<VTKFile type="StructuredGrid" version="0.1"> 
<StructuredGrid WholeExtent="0 100 0 100 0 0"> 
<Piece Extent="0 100 0 100 0 0"> 
<PointData Scalars="Stress components">
<DataArray type="Float32" Name="sigma_xx" format="ascii" NumberOfComponents="1"> 
-5.9999 -5.99668 -5.98696 -5.97062 -5.94757 -5.91772 -5.88099 -5.8373 -5.78659 -5.7288 -5.66388 -5.59178 -5.51249 -5.42597 -5.33223 -5.23125 -5.12305 -5.00766 -4.8851 -4.75543 -4.6187 -4.47498 -4.32435 -4.1669 -4.00275 -3.83201 -3.65481 -3.47129 -3.28161 -3.08593 -2.88444 -2.67732 -2.46478 -2.24703 -2.02429 -1.7968 -1.5648 -1.32854 -1.0883 -0.844331 -0.596926 -0.346369 -0.0929542 0.163016 0.421237 0.681394 0.943174 1.20626 1.47032 1.73503 2.00007 2.26511 2.52983 2.79389 3.05697 3.31875 3.5789 3.83712 4.09309 4.34651 4.59707 4.84447 5.08844 5.32868 5.56494 5.79694 6.02443 6.24717 6.46492 6.67746 6.88458 7.08607 7.28175 7.47143 7.65495 7.83215 8.00289 8.16704 8.32449 8.47512 8.61884 8.75557 8.88524 9.0078 9.12319 9.23139 9.33237 9.42611 9.51263 9.59192 9.66402 9.72894 9.78673 9.83744 9.88113 9.91786 9.94771 9.97076 9.9871 9.99682 10 -5.8424 -5.83924 -5.82971 -5.81369 -5.79109 -5.76183 -5.72583 -5.683 -5.63329 -5.57664 -5.51299 -5.44232 -5.36459 -5.27978 -5.18788 -5.08889 -4.98282 -4.8697 -4.74956 -4.62244 -4.4884 -4.34751 -4.19985 -4.04551 -3.88459 -3.71721 -3.5435 -3.3636 -3.17765 -2.98583 -2.78831 -2.58527 -2.37692 -2.16346 -1.94511 -1.72209 -1.49466 -1.26306 -1.02755 -0.788389 -0.545858 -0.300236 -0.0518142 0.199114 0.452247 0.70728 0.963903 1.2218 1.48066 1.74016 1.99998 2.2598 2.5193 2.77816 3.03605 3.29268 3.54771 3.80084 4.05177 4.30019 4.54582 4.78835 5.02751 5.26302 5.49462 5.72205 5.94506 6.16341 6.37688 6.58523 6.78827 6.98579 7.17761 7.36356 7.54346 7.71717 7.88455 8.04547 8.19981 8.34747 8.48836 8.6224 8.74952 8.86966 8.98278 9.08885 9.18783 9.27973 9.36455 9.44228 9.51295 9.57659 9.63325 9.68296 9.72578 9.76179 9.79105 9.81365 9.82966 9.8392 9.84236 -5.6894 -5.6863 -5.67695 -5.66125 -5.63909 -5.61041 -5.5751 -5.53311 -5.48437 -5.42882 -5.36642 -5.29713 -5.22091 -5.13775 -5.04765 -4.95059 -4.84659 -4.73568 -4.61788 -4.49325 -4.36182 -4.22368 -4.0789 -3.92757 -3.76979 -3.60568 -3.43536 -3.25896 -3.07665 -2.88857 -2.6949 -2.49582 -2.29153 -2.08224 -1.86815 -1.64949 -1.42649 -1.19941 -0.968492 -0.733998 -0.496199 -0.25537 -0.0117946 0.234238 0.482432 0.732489 0.984105 1.23697 1.49078 1.74522 1.99997 2.25472 2.50915 2.76296 3.01583 3.26744 3.5175 3.76569 4.01173 4.2553 4.49613 4.73393 4.96842 5.19934 5.42642 5.64942 5.86808 6.08217 6.29147 6.49575 6.69483 6.8885 7.07658 7.25889 7.43529 7.60561 7.76972 7.9275 8.07883 8.22361 8.36175 8.49318 8.61781 8.73561 8.84652 8.95052 9.04758 9.13768 9.22084 9.29706 9.36635 9.42875 9.4843 9.53304 9.57503 9.61034 9.63903 9.66118 9.67689 9.68624 9.68933 -5.54078 -5.53775 -5.52858 -5.51317 -5.49145 -5.46331 -5.42869 -5.38751 -5.33971 -5.28524 -5.22404 -5.15609 -5.08134 -4.9998 -4.91143 -4.81625 -4.71426 -4.60549 -4.48997 -4.36774 -4.23886 -4.10339 -3.9614 -3.813 -3.65827 -3.49733 -3.3303 -3.15731 -2.97852 -2.79407 -2.60415 -2.40892 -2.20858 -2.00332 -1.79337 -1.57894 -1.36025 -1.13756 -0.911103 -0.681141 -0.447937 -0.211762 0.0271068 0.268385 0.511783 0.757008 1.00376 1.25174 1.50064 1.75016 1.99999 2.24982 2.49934 2.74824 2.99622 3.24297 3.4882 3.7316 3.97287 4.21174 4.44792 4.68112 4.91108 5.13754 5.36023 5.57892 5.79335 6.00331 6.20856 6.4089 6.60413 6.79406 6.9785 7.15729 7.33028 7.49731 7.65825 7.81298 7.96139 8.10337 8.23884 8.36772 8.48995 8.60547 8.71424 8.81623 8.91141 8.99978 9.08133 9.15607 9.22402 9.28522 9.33969 9.38749 9.42867 9.4633 9.49143 9.51316 9.52856 9.53773 9.54076 -5.39642 -5.39344 -5.38445 -5.36934 -5.34803 -5.32043 -5.28647 -5.24608 -5.1992 -5.14576 -5.08574 -5.01909 -4.94577 -4.86579 -4.77911 -4.68575 -4.58572 -4.47903 -4.36572 -4.24583 -4.11941 -3.98653 -3.84727 -3.7017 -3.54993 -3.39207 -3.22824 -3.05857 -2.8832 -2.70228 -2.51599 -2.3245 -2.12799 -1.92667 -1.72073 -1.5104 -1.2959 -1.07747 -0.855351 -0.62979 -0.40105 -0.169395 0.0649014 0.301561 0.540301 0.780832 1.02286 1.2661 1.51023 1.75498 2.00002 2.24507 2.48981 2.73395 2.97719 3.21922 3.45975 3.69849 3.93515 4.16944 4.4011 4.62984 4.8554 5.07752 5.29595 5.51045 5.72078 5.92672 6.12804 6.32455 6.51604 6.70233 6.88324 7.05861 7.22829 7.39212 7.54998 7.70175 7.84732 7.98658 8.11946 8.24588 8.36577 8.47908 8.58577 8.6858 8.77916 8.86583 8.94582 9.01914 9.08579 9.14581 9.19925 9.24613 9.28652 9.32048 9.34808 9.36939 9.38449 9.39349 9.39646 -5.25617 -5.25325 -5.24443 -5.22961 -5.2087 -5.18163 -5.14831 -5.10869 -5.06269 -5.01027 -4.95139 -4.88599 -4.81407 -4.7356 -4.65057 -4.55898 -4.46084 -4.35618 -4.24501 -4.1274 -4.00338 -3.87302 -3.73639 -3.59359 -3.4447 -3.28983 -3.1291 -2.96264 -2.7906 -2.61311 -2.43035 -2.24249 -2.04971 -1.8522 -1.65017 -1.44383 -1.2334 -1.01911 -0.801196 -0.579912 -0.355508 -0.128245 0.10161 0.333783 0.567996 0.803967 1.04141 1.28003 1.51954 1.75965 2.00005 2.24045 2.48055 2.72006 2.95868 3.19613 3.4321 3.66631 3.89848 4.12834 4.3556 4.58 4.80129 5.0192 5.23349 5.44392 5.65026 5.8523 6.0498 6.24259 6.43045 6.61321 6.79069 6.96274 7.12919 7.28992 7.44479 7.59368 7.73649 7.87311 8.00347 8.12749 8.24511 8.35627 8.46093 8.55907 8.65066 8.73569 8.81417 8.88609 8.95148 9.01037 9.06278 9.10878 9.14841 9.18172 9.20879 9.2297 9.24452 9.25334 9.25626 -5.11991 -5.11704 -5.10839 -5.09384 -5.07333 -5.04676 -5.01407 -4.97519 -4.93006 -4.87863 -4.82085 -4.75668 -4.68611 -4.60911 -4.52568 -4.43581 -4.33951 -4.23681 -4.12774 -4.01233 -3.89064 -3.76273 -3.62867 -3.48854 -3.34245 -3.19049 -3.03278 -2.86945 -2.70063 -2.52648 -2.34716 -2.16282 -1.97366 -1.77986 -1.58162 -1.37916 -1.17268 -0.962411 -0.748592 -0.531463 -0.311273 -0.0882779 0.13726 0.365073 0.594889 0.826428 1.05941 1.29355 1.52857 1.76416 2.00005 2.23593 2.47153 2.70654 2.94068 3.17366 3.4052 3.63502 3.86283 4.08837 4.31137 4.53156 4.74868 4.9625 5.17277 5.37925 5.58172 5.77995 5.97375 6.16291 6.34725 6.52658 6.70073 6.86954 7.03287 7.19058 7.34254 7.48864 7.62876 7.76282 7.89073 8.01242 8.12783 8.23691 8.33961 8.4359 8.52577 8.60921 8.6862 8.75678 8.82094 8.87872 8.93015 8.97529 9.01417 9.04686 9.07342 9.09394 9.10848 9.11713 9.12 -4.98748 -4.98467 -4.97617 -4.9619 -4.94177 -4.9157 -4.88361 -4.84546 -4.80116 -4.75069 -4.69398 -4.63101 -4.56175 -4.48619 -4.4043 -4.31611 -4.2216 -4.12081 -4.01377 -3.90051 -3.78108 -3.65555 -3.52398 -3.38646 -3.24309 -3.09395 -2.93918 -2.77889 -2.61321 -2.4423 -2.26631 -2.0854 -1.89976 -1.70957 -1.51502 -1.31632 -1.11368 -0.907324 -0.697483 -0.484393 -0.2683 -0.0494528 0.17189 0.395465 0.621005 0.848237 1.07689 1.30667 1.53731 1.76852 2.00002 2.23152 2.46273 2.69337 2.92316 3.15181 3.37904 3.60458 3.82816 4.0495 4.26834 4.48444 4.69753 4.90737 5.11372 5.31636 5.51506 5.70961 5.89981 6.08545 6.26635 6.44235 6.61326 6.77893 6.93922 7.094 7.24313 7.38651 7.52403 7.65559 7.78113 7.90055 8.01381 8.12086 8.22165 8.31615 8.40435 8.48623 8.5618 8.63106 8.69403 8.75073 8.80121 8.8455 8.88366 8.91574 8.94181 8.96194 8.97622 8.98471 8.98752 -4.85874 -4.85598 -4.84764 -4.83363 -4.81387 -4.78828 -4.75679 -4.71933 -4.67586 -4.62631 -4.57065 -4.50884 -4.44086 -4.36668 -4.28631 -4.19974 -4.10698 -4.00804 -3.90297 -3.7918 -3.67457 -3.55135 -3.42221 -3.28723 -3.14649 -3.00011 -2.84819 -2.69085 -2.52823 -2.36047 -2.18772 -2.01015 -1.82793 -1.64124 -1.45028 -1.25524 -1.05633 -0.853781 -0.647808 -0.438645 -0.226534 -0.0117207 0.205542 0.424997 0.64638 0.869425 1.09386 1.31941 1.5458 1.77275 1.99998 2.22721 2.45416 2.68055 2.9061 3.13054 3.35358 3.57497 3.79442 4.01168 4.2265 4.43861 4.64777 4.85374 5.0563 5.2552 5.45024 5.6412 5.82789 6.01011 6.18768 6.36043 6.52819 6.69081 6.84815 7.00007 7.14646 7.28719 7.42218 7.55132 7.67454 7.79176 7.90294 8.00801 8.10694 8.1997 8.28627 8.36665 8.44082 8.5088 8.57061 8.62627 8.67582 8.7193 8.75675 8.78824 8.81383 8.83359 8.8476 8.85594 8.8587 -4.73353 -4.73082 -4.72263 -4.70888 -4.68948 -4.66435 -4.63344 -4.59667 -4.55398 -4.50534 -4.4507 -4.39002 -4.32328 -4.25046 -4.17155 -4.08656 -3.99549 -3.89837 -3.79522 -3.68607 -3.57099 -3.45002 -3.32324 -3.19072 -3.05255 -2.90884 -2.75969 -2.60523 -2.44558 -2.28088 -2.11129 -1.93696 -1.75807 -1.57479 -1.38731 -1.19583 -1.00056 -0.801709 -0.599497 -0.394154 -0.185916 0.0249743 0.23827 0.453717 0.671057 0.890028 1.11036 1.3318 1.55405 1.77686 1.99994 2.22302 2.44583 2.66808 2.88951 3.10985 3.32882 3.54616 3.76161 3.9749 4.18579 4.39403 4.59937 4.80159 5.00044 5.19571 5.38719 5.57466 5.75794 5.93684 6.11116 6.28076 6.44545 6.60511 6.75957 6.90872 7.05243 7.1906 7.32311 7.4499 7.57087 7.68595 7.79509 7.89825 7.99537 8.08644 8.17143 8.25034 8.32316 8.3899 8.45058 8.50522 8.55386 8.59655 8.63332 8.66423 8.68935 8.70875 8.72251 8.73069 8.7334 -4.61169 -4.60903 -4.60099 -4.58748 -4.56843 -4.54377 -4.51341 -4.4773 -4.43539 -4.38763 -4.33398 -4.2744 -4.20886 -4.13736 -4.05988 -3.97643 -3.88701 -3.79164 -3.69036 -3.58319 -3.47019 -3.35141 -3.22692 -3.0968 -2.96114 -2.82002 -2.67358 -2.52191 -2.36514 -2.20343 -2.0369 -1.86573 -1.69008 -1.51011 -1.32603 -1.13802 -0.946281 -0.751027 -0.552474 -0.350848 -0.146379 0.0606949 0.27013 0.481678 0.695085 0.910093 1.12644 1.34387 1.5621 1.78087 1.99992 2.21896 2.43773 2.65597 2.87339 3.08974 3.30475 3.51816 3.7297 3.93914 4.14621 4.35068 4.55231 4.75086 4.94611 5.13785 5.32586 5.50995 5.68991 5.86557 6.03674 6.20326 6.36498 6.52174 6.67341 6.81986 6.96097 7.09663 7.22675 7.35124 7.47002 7.58302 7.69019 7.79148 7.88685 7.97626 8.05972 8.1372 8.2087 8.27423 8.33381 8.38747 8.43523 8.47714 8.51324 8.5436 8.56827 8.58732 8.60082 8.60886 8.61152 -4.49307 -4.49046 -4.48256 -4.4693 -4.45059 -4.42637 -4.39656 -4.3611 -4.31994 -4.27303 -4.22034 -4.16183 -4.09747 -4.02725 -3.95117 -3.86921 -3.78139 -3.68774 -3.58827 -3.48302 -3.37205 -3.2554 -3.13314 -3.00536 -2.87213 -2.73355 -2.58972 -2.44078 -2.28683 -2.12801 -1.96447 -1.79637 -1.62387 -1.44713 -1.26635 -1.08171 -0.893414 -0.701662 -0.506671 -0.308662 -0.107861 0.0954987 0.301177 0.50893 0.718509 0.92966 1.14213 1.35565 1.56997 1.78482 1.99994 2.21505 2.4299 2.64422 2.85774 3.07021 3.28136 3.49094 3.69869 3.90437 4.10773 4.30853 4.50654 4.70153 4.89328 5.08158 5.26622 5.447 5.62374 5.79624 5.96434 6.12788 6.2867 6.44065 6.5896 6.73342 6.872 7.00523 7.13301 7.25527 7.37192 7.48289 7.58814 7.68761 7.78126 7.86908 7.95104 8.02712 8.09734 8.1617 8.22021 8.27291 8.31981 8.36097 8.39643 8.42624 8.45046 8.46917 8.48243 8.49033 8.49294 -4.37758 -4.37502 -4.36726 -4.35423 -4.33586 -4.31206 -4.28278 -4.24796 -4.20753 -4.16146 -4.1097 -4.05223 -3.98902 -3.92005 -3.84531 -3.76481 -3.67856 -3.58657 -3.48887 -3.38549 -3.27649 -3.16192 -3.04183 -2.91632 -2.78546 -2.64934 -2.50808 -2.36178 -2.21056 -2.05457 -1.89394 -1.72883 -1.55939 -1.3858 -1.20823 -1.02688 -0.841928 -0.653586 -0.462062 -0.267573 -0.0703416 0.129402 0.331423 0.535482 0.741335 0.948732 1.15742 1.36715 1.57766 1.78869 1.99998 2.21127 2.4223 2.63281 2.84253 3.05122 3.25862 3.46447 3.66853 3.87055 4.0703 4.26753 4.46202 4.65354 4.84188 5.02683 5.20819 5.38576 5.55935 5.72879 5.8939 6.05453 6.21052 6.36173 6.50803 6.6493 6.78541 6.91628 7.04179 7.16187 7.27645 7.38545 7.48882 7.58652 7.67851 7.76477 7.84527 7.92 7.98897 8.05219 8.10966 8.16141 8.20749 8.24791 8.28274 8.31202 8.33581 8.35419 8.36722 8.37497 8.37754 -4.26514 -4.26262 -4.255 -4.2422 -4.22415 -4.20078 -4.17201 -4.1378 -4.09808 -4.05283 -4.00198 -3.94552 -3.88342 -3.81567 -3.74225 -3.66317 -3.57844 -3.48807 -3.39209 -3.29053 -3.18345 -3.0709 -2.95293 -2.82963 -2.70108 -2.56736 -2.42858 -2.28486 -2.13631 -1.98307 -1.82527 -1.66307 -1.49662 -1.32609 -1.15165 -0.973487 -0.791796 -0.606774 -0.418625 -0.227564 -0.0338086 0.162415 0.360876 0.561339 0.763563 0.967305 1.17232 1.37835 1.58515 1.79246 2.00002 2.20759 2.4149 2.6217 2.82773 3.03274 3.23648 3.43871 3.63917 3.83763 4.03386 4.22761 4.41867 4.60682 4.79184 4.97354 5.1517 5.32613 5.49667 5.66312 5.82532 5.98312 6.13636 6.28491 6.42863 6.56741 6.70112 6.82968 6.95298 7.07095 7.1835 7.29058 7.39213 7.48811 7.57848 7.66322 7.7423 7.81572 7.88347 7.94557 8.00203 8.05287 8.09813 8.13785 8.17206 8.20082 8.2242 8.24225 8.25505 8.26267 8.26519 -4.15566 -4.15318 -4.14569 -4.13312 -4.11539 -4.09242 -4.06416 -4.03054 -3.99152 -3.94705 -3.8971 -3.84162 -3.78061 -3.71404 -3.6419 -3.5642 -3.48095 -3.39216 -3.29786 -3.19808 -3.09287 -2.98228 -2.86637 -2.74522 -2.61891 -2.48753 -2.35118 -2.20997 -2.06402 -1.91345 -1.75841 -1.59904 -1.4355 -1.26794 -1.09655 -0.921506 -0.74299 -0.561199 -0.376337 -0.188614 0.00175675 0.194552 0.389546 0.586507 0.785199 0.985382 1.18681 1.38925 1.59243 1.79612 2.00006 2.204 2.40769 2.61087 2.81331 3.01474 3.21492 3.41361 3.61057 3.80557 3.99836 4.18873 4.37646 4.56132 4.74311 4.92163 5.09667 5.26806 5.43562 5.59916 5.75853 5.91357 6.06414 6.21009 6.3513 6.48765 6.61903 6.74534 6.86649 6.9824 7.09299 7.1982 7.29797 7.39228 7.48107 7.56432 7.64202 7.71416 7.78073 7.84174 7.89722 7.94717 7.99164 8.03066 8.06428 8.09254 8.11551 8.13324 8.14581 8.1533 8.15577 -4.04904 -4.04661 -4.03925 -4.0269 -4.00947 -3.9869 -3.95913 -3.92609 -3.88775 -3.84405 -3.79496 -3.74045 -3.68049 -3.61507 -3.54418 -3.46783 -3.38602 -3.29876 -3.2061 -3.10804 -3.00466 -2.89598 -2.78208 -2.66303 -2.53891 -2.40981 -2.27582 -2.13705 -1.99362 -1.84567 -1.69331 -1.5367 -1.37599 -1.21134 -1.04291 -0.870897 -0.695472 -0.516829 -0.335169 -0.150696 0.0363779 0.225835 0.417452 0.611002 0.806254 1.00297 1.20091 1.39984 1.59951 1.79967 2.00008 2.20049 2.40065 2.60031 2.79924 2.99718 3.1939 3.38915 3.5827 3.77432 3.96378 4.15085 4.33532 4.51698 4.69563 4.87105 5.04307 5.21149 5.37614 5.53685 5.69346 5.84582 5.99378 6.1372 6.27597 6.40996 6.53907 6.66319 6.78224 6.89614 7.00481 7.1082 7.20625 7.29892 7.38617 7.46798 7.54434 7.61522 7.68064 7.7406 7.79511 7.8442 7.8879 7.92625 7.95928 7.98705 8.00962 8.02705 8.03941 8.04676 8.04919 -3.9452 -3.94281 -3.93558 -3.92344 -3.90631 -3.88413 -3.85683 -3.82436 -3.78668 -3.74373 -3.69548 -3.64191 -3.58298 -3.51868 -3.44901 -3.37397 -3.29356 -3.20781 -3.11673 -3.02036 -2.91875 -2.81194 -2.7 -2.58299 -2.461 -2.33411 -2.20242 -2.06603 -1.92507 -1.77965 -1.62991 -1.47599 -1.31804 -1.15621 -0.990681 -0.821617 -0.649203 -0.473628 -0.295086 -0.113779 0.0700829 0.256287 0.444615 0.634843 0.826742 1.02008 1.21463 1.41014 1.60638 1.8031 2.00007 2.19704 2.39377 2.59 2.78552 2.98006 3.1734 3.3653 3.55553 3.74386 3.93006 4.11392 4.29523 4.47377 4.64935 4.82176 4.99082 5.15636 5.31818 5.47613 5.63006 5.7798 5.92521 6.06618 6.20256 6.33425 6.46114 6.58313 6.70014 6.81208 6.91889 7.0205 7.11687 7.20795 7.29371 7.37411 7.44916 7.51882 7.58312 7.64205 7.69563 7.74387 7.78682 7.82451 7.85697 7.88427 7.90645 7.92358 7.93573 7.94295 7.94535 -3.84404 -3.84169 -3.83459 -3.82265 -3.80581 -3.78401 -3.75718 -3.72526 -3.68822 -3.646 -3.59857 -3.54591 -3.48798 -3.42478 -3.3563 -3.28253 -3.20349 -3.1192 -3.02967 -2.93494 -2.83506 -2.73007 -2.62003 -2.50501 -2.3851 -2.26037 -2.13092 -1.99686 -1.85829 -1.71535 -1.56816 -1.41686 -1.26159 -1.10252 -0.939806 -0.77362 -0.60414 -0.431553 -0.256049 -0.0778288 0.102904 0.28594 0.471062 0.658053 0.846686 1.03673 1.22797 1.42015 1.61305 1.80643 2.00005 2.19366 2.38704 2.57994 2.77212 2.96336 3.15341 3.34204 3.52903 3.71415 3.89719 4.07792 4.25614 4.43164 4.60423 4.77371 4.9399 5.10261 5.26168 5.41695 5.56825 5.71544 5.85839 5.99695 6.13101 6.26046 6.38519 6.50511 6.62012 6.73016 6.83515 6.93503 7.02976 7.11929 7.20359 7.28263 7.35639 7.42487 7.48808 7.546 7.59867 7.64609 7.68831 7.72535 7.75727 7.7841 7.8059 7.82274 7.83468 7.84179 7.84414 -3.74547 -3.74316 -3.73617 -3.72443 -3.70788 -3.68644 -3.66006 -3.62869 -3.59227 -3.55076 -3.50414 -3.45236 -3.39541 -3.33328 -3.26595 -3.19343 -3.11572 -3.03285 -2.94483 -2.8517 -2.75351 -2.65029 -2.54211 -2.42903 -2.31114 -2.18852 -2.06125 -1.92945 -1.79322 -1.65269 -1.50798 -1.35924 -1.20659 -1.0502 -0.890236 -0.726854 -0.560234 -0.390559 -0.218017 -0.0428042 0.134879 0.314826 0.496825 0.680659 0.86611 1.05295 1.24096 1.4299 1.61954 1.80966 2.00001 2.19036 2.38047 2.57011 2.75906 2.94706 3.1339 3.31935 3.50319 3.68519 3.86514 4.04282 4.21803 4.39057 4.56025 4.72687 4.89025 5.05022 5.20661 5.35925 5.508 5.65271 5.79324 5.92946 6.06127 6.18853 6.31115 6.42905 6.54212 6.6503 6.75352 6.85172 6.94485 7.03287 7.11574 7.19344 7.26597 7.33329 7.39543 7.45238 7.50415 7.55078 7.59228 7.6287 7.66008 7.68646 7.70789 7.72445 7.73618 7.74317 7.74548 -3.64937 -3.64709 -3.64022 -3.62869 -3.61241 -3.59133 -3.56539 -3.53454 -3.49873 -3.45792 -3.41208 -3.36117 -3.30517 -3.24408 -3.17787 -3.10657 -3.03016 -2.94868 -2.86213 -2.77056 -2.674 -2.57251 -2.46614 -2.35496 -2.23904 -2.11847 -1.99333 -1.86374 -1.72979 -1.59161 -1.44932 -1.30306 -1.15297 -0.999205 -0.841913 -0.681265 -0.517434 -0.350598 -0.180943 -0.00866192 0.166048 0.342984 0.521937 0.702696 0.885043 1.06876 1.25362 1.4394 1.62587 1.8128 1.99997 2.18713 2.37406 2.56053 2.74631 2.93117 3.11489 3.29724 3.478 3.65695 3.83388 4.00859 4.18088 4.35053 4.51737 4.6812 4.84185 4.99914 5.15291 5.303 5.44926 5.59154 5.72972 5.86367 5.99327 6.1184 6.23897 6.35489 6.46608 6.57245 6.67394 6.77049 6.86206 6.94861 7.0301 7.1065 7.17781 7.24401 7.3051 7.3611 7.41201 7.45785 7.49867 7.53448 7.56533 7.59126 7.61234 7.62862 7.64016 7.64703 7.6493 -3.55564 -3.5534 -3.54665 -3.5353 -3.5193 -3.49857 -3.47306 -3.44272 -3.40751 -3.36737 -3.32229 -3.27222 -3.21716 -3.15708 -3.09197 -3.02185 -2.94671 -2.86658 -2.78147 -2.69142 -2.59646 -2.49666 -2.39205 -2.28271 -2.16872 -2.05015 -1.92709 -1.79964 -1.66792 -1.53203 -1.39211 -1.24828 -1.10068 -0.949459 -0.794777 -0.636795 -0.475683 -0.311615 -0.144776 0.024646 0.196457 0.370456 0.54644 0.724198 0.903519 1.08419 1.26598 1.44868 1.63205 1.81588 1.99994 2.184 2.36783 2.55121 2.7339 2.91569 3.09636 3.27568 3.45344 3.62942 3.80342 3.97523 4.14466 4.3115 4.47556 4.63668 4.79466 4.94934 5.10056 5.24816 5.39199 5.53192 5.6678 5.79953 5.92697 6.05003 6.1686 6.2826 6.39193 6.49654 6.59634 6.6913 6.78135 6.86646 6.94659 7.02173 7.09185 7.15696 7.21704 7.2721 7.32217 7.36725 7.40739 7.4426 7.47294 7.49845 7.51918 7.53518 7.54653 7.55328 7.55552 -3.46419 -3.46199 -3.45535 -3.44419 -3.42844 -3.40806 -3.38297 -3.35313 -3.31849 -3.27902 -3.23468 -3.18544 -3.13128 -3.07218 -3.00815 -2.93918 -2.86528 -2.78647 -2.70276 -2.61419 -2.5208 -2.42264 -2.31975 -2.21222 -2.1001 -1.98348 -1.86245 -1.7371 -1.60754 -1.47389 -1.33627 -1.19481 -1.04964 -0.900907 -0.748772 -0.59339 -0.43493 -0.273563 -0.10947 0.0571631 0.226146 0.397281 0.570368 0.7452 0.92157 1.09926 1.27806 1.45775 1.63811 1.81891 1.99994 2.18097 2.36178 2.54213 2.72182 2.90062 3.07832 3.25468 3.42952 3.6026 3.77374 3.94272 4.10936 4.27345 4.43481 4.59328 4.74866 4.90079 5.04952 5.19469 5.33616 5.47378 5.60743 5.73698 5.86233 5.98336 6.09998 6.2121 6.31964 6.42252 6.52069 6.61408 6.70265 6.78635 6.86517 6.93907 7.00804 7.07207 7.13116 7.18532 7.23456 7.27891 7.31838 7.35301 7.38285 7.40794 7.42833 7.44407 7.45523 7.46187 7.46407 -3.37495 -3.37279 -3.36625 -3.35527 -3.33979 -3.31973 -3.29506 -3.2657 -3.23163 -3.19281 -3.14919 -3.10075 -3.04747 -2.98935 -2.92636 -2.85852 -2.78582 -2.7083 -2.62595 -2.53883 -2.44697 -2.3504 -2.2492 -2.14342 -2.03313 -1.91842 -1.79936 -1.67606 -1.54862 -1.41715 -1.28178 -1.14262 -0.999822 -0.853522 -0.703871 -0.551026 -0.395153 -0.236421 -0.0750072 0.0889053 0.255129 0.42347 0.59373 0.765708 0.939198 1.11399 1.28987 1.46663 1.64404 1.82189 1.99996 2.17804 2.35589 2.5333 2.71006 2.88594 3.06073 3.23422 3.4062 3.57646 3.7448 3.91102 4.07493 4.23635 4.39508 4.55095 4.7038 4.85345 4.99975 5.14255 5.2817 5.41708 5.54855 5.67599 5.79929 5.91834 6.03306 6.14335 6.24913 6.35033 6.44689 6.53876 6.62588 6.70822 6.78575 6.85845 6.92629 6.98927 7.0474 7.10068 7.14911 7.19273 7.23156 7.26563 7.29498 7.31966 7.33971 7.3552 7.36618 7.37271 7.37488 -3.28787 -3.28574 -3.27931 -3.26851 -3.25328 -3.23355 -3.20927 -3.18039 -3.14688 -3.10868 -3.06576 -3.01811 -2.9657 -2.90851 -2.84655 -2.7798 -2.70829 -2.63201 -2.55101 -2.46529 -2.37492 -2.27992 -2.18036 -2.07629 -1.96779 -1.85493 -1.7378 -1.6165 -1.49112 -1.36178 -1.2286 -1.0917 -0.951211 -0.80728 -0.660052 -0.509684 -0.356335 -0.200174 -0.0413742 0.119884 0.283415 0.449029 0.616532 0.785725 0.956405 1.12837 1.3014 1.47529 1.64983 1.8248 1.99999 2.17518 2.35015 2.52469 2.69858 2.87162 3.04358 3.21426 3.38345 3.55095 3.71657 3.8801 4.04135 4.20015 4.35631 4.50966 4.66003 4.80726 4.95119 5.09168 5.22858 5.36176 5.4911 5.61648 5.73778 5.85491 5.96777 6.07627 6.18034 6.2799 6.3749 6.46528 6.55099 6.63199 6.70827 6.77978 6.84653 6.90849 6.96568 7.01809 7.06574 7.10866 7.14686 7.18037 7.20925 7.23353 7.25326 7.26849 7.27929 7.28572 7.28785 -3.20289 -3.2008 -3.19447 -3.18385 -3.16886 -3.14945 -3.12556 -3.09714 -3.06416 -3.02658 -2.98436 -2.93747 -2.8859 -2.82963 -2.76866 -2.70299 -2.63262 -2.55757 -2.47787 -2.39353 -2.30461 -2.21114 -2.11317 -2.01078 -1.90402 -1.79297 -1.67773 -1.55837 -1.43501 -1.30775 -1.17671 -1.042 -0.903774 -0.762156 -0.617294 -0.469341 -0.318455 -0.164803 -0.00855497 0.150112 0.311016 0.47397 0.638782 0.805256 0.973194 1.14239 1.31264 1.48374 1.65548 1.82764 2.00001 2.17239 2.34455 2.51628 2.68738 2.85763 3.02683 3.19477 3.36124 3.52606 3.68901 3.84991 4.00858 4.16483 4.31848 4.46937 4.61732 4.76218 4.9038 5.04203 5.17673 5.30778 5.43504 5.5584 5.67775 5.793 5.90404 6.0108 6.1132 6.21116 6.30463 6.39356 6.47789 6.5576 6.63265 6.70302 6.76869 6.82966 6.88592 6.9375 6.98438 7.02661 7.06419 7.09717 7.12558 7.14947 7.16888 7.18387 7.1945 7.20083 7.20292 -3.11996 -3.1179 -3.11168 -3.10122 -3.08647 -3.06736 -3.04386 -3.0159 -2.98344 -2.94646 -2.90491 -2.85877 -2.80802 -2.75265 -2.69265 -2.62802 -2.55878 -2.48493 -2.40649 -2.3235 -2.23599 -2.14401 -2.04761 -1.94684 -1.84178 -1.73251 -1.6191 -1.50165 -1.38025 -1.25502 -1.12606 -0.993509 -0.857483 -0.718121 -0.575568 -0.429972 -0.281492 -0.130288 0.0234696 0.179608 0.337948 0.498304 0.66049 0.824311 0.989572 1.15607 1.32361 1.49198 1.66098 1.8304 2.00003 2.16965 2.33907 2.50807 2.67644 2.84398 3.01048 3.17574 3.33956 3.50175 3.66211 3.82045 3.97658 4.13034 4.28155 4.43003 4.57562 4.71818 4.85754 4.99356 5.12612 5.25507 5.38031 5.5017 5.61915 5.73256 5.84184 5.9469 6.04766 6.14406 6.23605 6.32355 6.40654 6.48498 6.55883 6.62808 6.6927 6.7527 6.80807 6.85882 6.90496 6.94651 6.9835 7.01595 7.04391 7.06742 7.08652 7.10127 7.11173 7.11796 7.12002 -3.03901 -3.03698 -3.03086 -3.02057 -3.00605 -2.98725 -2.96411 -2.93659 -2.90465 -2.86825 -2.82736 -2.78195 -2.732 -2.6775 -2.61846 -2.55485 -2.4867 -2.41402 -2.33682 -2.25514 -2.16902 -2.07849 -1.98361 -1.88444 -1.78104 -1.6735 -1.56188 -1.44628 -1.32681 -1.20355 -1.07664 -0.946179 -0.812303 -0.675145 -0.534845 -0.391552 -0.245419 -0.0966058 0.0547212 0.208391 0.364227 0.522049 0.68167 0.842901 1.00555 1.16942 1.33431 1.50002 1.66635 1.83308 2.00003 2.16697 2.33371 2.50004 2.66575 2.83064 2.99451 3.15716 3.31839 3.47801 3.63583 3.79167 3.94534 4.09666 4.24548 4.39161 4.5349 4.6752 4.81236 4.94624 5.0767 5.20361 5.32687 5.44634 5.56194 5.67355 5.7811 5.8845 5.98367 6.07855 6.16908 6.2552 6.33688 6.41407 6.48676 6.55491 6.61851 6.67756 6.73206 6.782 6.82741 6.86831 6.90471 6.93665 6.96417 6.9873 7.0061 7.02062 7.03092 7.03704 7.03907 -2.95998 -2.95799 -2.95196 -2.94183 -2.92753 -2.90903 -2.88626 -2.85917 -2.82773 -2.7919 -2.75165 -2.70695 -2.65779 -2.60415 -2.54602 -2.48342 -2.41633 -2.34479 -2.2688 -2.18841 -2.10363 -2.01453 -1.92114 -1.82352 -1.72175 -1.61588 -1.50602 -1.39224 -1.27463 -1.15332 -1.02839 -0.899976 -0.7682 -0.633193 -0.495094 -0.354049 -0.210208 -0.063729 0.0852243 0.236484 0.389876 0.545222 0.702339 0.861042 1.02114 1.18244 1.34474 1.50785 1.67157 1.83569 2.00002 2.16435 2.32847 2.49219 2.6553 2.8176 2.9789 3.139 3.2977 3.45482 3.61016 3.76356 3.91481 4.06377 4.21025 4.35409 4.49513 4.63323 4.76824 4.90002 5.02843 5.15335 5.27467 5.39228 5.50606 5.61592 5.72178 5.82356 5.92117 6.01457 6.10367 6.18845 6.26884 6.34483 6.41637 6.48346 6.54606 6.60418 6.65782 6.70699 6.75169 6.79194 6.82777 6.85921 6.88629 6.90907 6.92757 6.94186 6.95199 6.95803 6.96002 -2.88281 -2.88085 -2.87491 -2.86493 -2.85087 -2.83265 -2.81023 -2.78357 -2.75261 -2.71734 -2.67772 -2.63371 -2.58532 -2.53251 -2.47529 -2.41366 -2.34762 -2.27719 -2.20239 -2.12324 -2.03979 -1.95207 -1.86013 -1.76403 -1.66384 -1.55963 -1.45147 -1.33946 -1.22369 -1.10426 -0.981277 -0.854862 -0.725137 -0.592231 -0.456281 -0.317431 -0.175828 -0.0316292 0.115006 0.263912 0.414916 0.567845 0.722517 0.87875 1.03636 1.19514 1.35492 1.51549 1.67666 1.83823 2 2.16177 2.32334 2.48451 2.64508 2.80486 2.96365 3.12125 3.27749 3.43216 3.58509 3.73609 3.885 4.03163 4.17583 4.31744 4.45629 4.59224 4.72514 4.85487 4.98128 5.10426 5.22369 5.33947 5.45148 5.55963 5.66385 5.76404 5.86013 5.95207 6.03979 6.12325 6.20239 6.2772 6.34763 6.41366 6.4753 6.53251 6.58532 6.63372 6.67772 6.71735 6.75262 6.78357 6.81023 6.83265 6.85087 6.86494 6.87491 6.88085 6.88281 -2.80743 -2.80549 -2.79965 -2.78983 -2.77598 -2.75804 -2.73597 -2.70972 -2.67924 -2.64451 -2.6055 -2.56218 -2.51453 -2.46254 -2.4062 -2.34552 -2.2805 -2.21116 -2.13751 -2.05959 -1.97742 -1.89106 -1.80054 -1.70593 -1.60728 -1.50468 -1.39819 -1.28791 -1.17393 -1.05634 -0.935258 -0.810796 -0.683074 -0.55222 -0.41837 -0.281663 -0.142248 -0.000275107 0.144096 0.290702 0.439375 0.589942 0.742226 0.896046 1.05122 1.20755 1.36486 1.52296 1.68164 1.84071 1.99998 2.15925 2.31833 2.47701 2.6351 2.79241 2.94875 3.10392 3.25774 3.41003 3.56059 3.70926 3.85587 4.00024 4.14221 4.28163 4.41834 4.55219 4.68304 4.81076 4.93523 5.05631 5.17389 5.28788 5.39816 5.50465 5.60725 5.70589 5.80051 5.89102 5.97739 6.05956 6.13748 6.21113 6.28047 6.34549 6.40617 6.4625 6.51449 6.56214 6.60547 6.64448 6.67921 6.70968 6.73593 6.75801 6.77594 6.78979 6.79961 6.80546 6.80739 -2.73377 -2.73186 -2.72611 -2.71644 -2.7028 -2.68514 -2.6634 -2.63755 -2.60755 -2.57335 -2.53493 -2.49227 -2.44535 -2.39416 -2.33869 -2.27894 -2.21492 -2.14664 -2.07412 -1.99739 -1.91648 -1.83144 -1.74231 -1.64915 -1.55201 -1.45098 -1.34613 -1.23754 -1.1253 -1.00951 -0.890288 -0.767733 -0.641968 -0.51312 -0.381321 -0.246709 -0.10943 0.0303669 0.172525 0.316885 0.463279 0.611539 0.761489 0.912952 1.06575 1.21969 1.37459 1.53026 1.68651 1.84314 1.99997 2.1568 2.31344 2.46969 2.62536 2.78026 2.9342 3.08699 3.23846 3.38841 3.53667 3.68306 3.82742 3.96958 4.10937 4.24665 4.38127 4.51306 4.64191 4.76768 4.89023 5.00946 5.12524 5.23748 5.34607 5.45093 5.55196 5.64909 5.74225 5.83138 5.91643 5.99733 6.07406 6.14658 6.21486 6.27888 6.33863 6.39411 6.4453 6.49222 6.53488 6.57329 6.60749 6.6375 6.66335 6.68508 6.70274 6.71638 6.72605 6.73181 6.73371 -2.66177 -2.65989 -2.65422 -2.6447 -2.63127 -2.61388 -2.59247 -2.56701 -2.53746 -2.50379 -2.46596 -2.42395 -2.37774 -2.32733 -2.2727 -2.21386 -2.15081 -2.08357 -2.01215 -1.93659 -1.85691 -1.77316 -1.68539 -1.59364 -1.49799 -1.39849 -1.29523 -1.18829 -1.07776 -0.963738 -0.846325 -0.725633 -0.601781 -0.474893 -0.345098 -0.212534 -0.0773427 0.0603278 0.200324 0.342488 0.486656 0.632661 0.78033 0.929489 1.07996 1.23156 1.3841 1.53741 1.69128 1.84553 1.99998 2.15442 2.30868 2.46255 2.61585 2.7684 2.91999 3.07046 3.21962 3.36729 3.5133 3.65747 3.79963 3.93963 4.0773 4.21249 4.34505 4.47485 4.60174 4.72559 4.84628 4.96369 5.07772 5.18825 5.29519 5.39845 5.49794 5.5936 5.68534 5.77312 5.85687 5.93654 6.0121 6.08352 6.15076 6.21381 6.27265 6.32728 6.37769 6.4239 6.46591 6.50374 6.53742 6.56697 6.59243 6.61383 6.63122 6.64465 6.65417 6.65984 6.66172 -2.59138 -2.58953 -2.58395 -2.57457 -2.56134 -2.54421 -2.52313 -2.49806 -2.46896 -2.43579 -2.39853 -2.35715 -2.31164 -2.26199 -2.20819 -2.15023 -2.08814 -2.02191 -1.95157 -1.87715 -1.79868 -1.71619 -1.62974 -1.53938 -1.44517 -1.34718 -1.24548 -1.14015 -1.03129 -0.918985 -0.803345 -0.684475 -0.562493 -0.43752 -0.309684 -0.179121 -0.0459705 0.0896219 0.227505 0.367523 0.509514 0.653315 0.798755 0.945663 1.09386 1.24317 1.39341 1.5444 1.69595 1.84788 1.99999 2.1521 2.30403 2.45558 2.60657 2.75681 2.90612 3.05432 3.20123 3.34667 3.49047 3.63246 3.77248 3.91036 4.04595 4.1791 4.30967 4.4375 4.56248 4.68446 4.80333 4.91897 5.03127 5.14013 5.24546 5.34716 5.44515 5.53936 5.62972 5.71617 5.79866 5.87713 5.95155 6.02189 6.08812 6.15022 6.20817 6.26197 6.31163 6.35713 6.39851 6.43577 6.46894 6.49804 6.52312 6.5442 6.56133 6.57455 6.58393 6.58952 6.59136 -2.52257 -2.52075 -2.51526 -2.50602 -2.49299 -2.47611 -2.45535 -2.43065 -2.40198 -2.36931 -2.33261 -2.29185 -2.24703 -2.19812 -2.14512 -2.08804 -2.02687 -1.96163 -1.89235 -1.81904 -1.74175 -1.6605 -1.57534 -1.48634 -1.39354 -1.29701 -1.19683 -1.09309 -0.985856 -0.875236 -0.761327 -0.644239 -0.524084 -0.400983 -0.275063 -0.146456 -0.0153006 0.11826 0.254078 0.391997 0.531862 0.673508 0.816769 0.961476 1.10745 1.25453 1.40252 1.55124 1.70052 1.85017 2.00001 2.14984 2.29949 2.44877 2.5975 2.74549 2.89256 3.03854 3.18325 3.32651 3.46815 3.60802 3.74594 3.88176 4.01532 4.14647 4.27508 4.401 4.5241 4.64425 4.76134 4.87525 4.98587 5.0931 5.19685 5.29703 5.39355 5.48635 5.57536 5.66051 5.74176 5.81906 5.89237 5.96165 6.02688 6.08805 6.14514 6.19813 6.24704 6.29187 6.33263 6.36933 6.402 6.43067 6.45536 6.47613 6.493 6.50603 6.51527 6.52077 6.52259 -2.45531 -2.45351 -2.4481 -2.439 -2.42616 -2.40954 -2.38908 -2.36475 -2.33651 -2.30432 -2.26817 -2.22802 -2.18386 -2.13568 -2.08347 -2.02723 -1.96697 -1.90271 -1.83446 -1.76224 -1.68609 -1.60605 -1.52216 -1.43448 -1.34306 -1.24797 -1.14928 -1.04708 -0.941441 -0.832465 -0.720251 -0.604904 -0.486536 -0.365266 -0.241218 -0.114524 0.0146816 0.146256 0.280054 0.415923 0.553707 0.693247 0.834378 0.976933 1.12074 1.26563 1.41142 1.55793 1.70499 1.85241 2.00002 2.14763 2.29505 2.44211 2.58862 2.73441 2.8793 3.02311 3.16566 3.30679 3.44633 3.58412 3.71999 3.85378 3.98536 4.11456 4.24126 4.36531 4.48658 4.60494 4.72029 4.83251 4.94148 5.04712 5.14932 5.24801 5.3431 5.43452 5.5222 5.60609 5.68613 5.76228 5.8345 5.90275 5.96701 6.02727 6.08351 6.13572 6.1839 6.22806 6.26821 6.30437 6.33655 6.36479 6.38912 6.40958 6.4262 6.43904 6.44814 6.45355 6.45535 -2.38954 -2.3877