<?xml version="1.0"?> 
<VTKFile type="StructuredGrid" version="0.1"> 
<StructuredGrid WholeExtent="0 100 0 100 0 0"> 
<Piece Extent="0 100 0 100 0 0"> 
<PointData Vectors="Displ">
<DataArray type="Float32" Name="Displ" format="ascii" NumberOfComponents="3"> 
5.72e-05 0 0 5.71942e-05 8.11266e-07 0 5.71769e-05 1.62706e-06 0 5.71476e-05 2.44718e-06 0 5.71064e-05 3.2714e-06 0 5.70529e-05 4.09949e-06 0 5.6987e-05 4.9312e-06 0 5.69086e-05 5.76631e-06 0 5.68174e-05 6.60455e-06 0 5.67133e-05 7.44567e-06 0 5.65962e-05 8.28939e-06 0 5.64658e-05 9.13545e-06 0 5.6322e-05 9.98356e-06 0 5.61647e-05 1.08334e-05 0 5.59938e-05 1.16847e-05 0 5.58091e-05 1.25372e-05 0 5.56105e-05 1.33906e-05 0 5.5398e-05 1.42445e-05 0 5.51713e-05 1.50985e-05 0 5.49305e-05 1.59525e-05 0 5.46754e-05 1.6806e-05 0 5.44059e-05 1.76588e-05 0 5.41221e-05 1.85104e-05 0 5.38239e-05 1.93606e-05 0 5.35111e-05 2.02089e-05 0 5.31839e-05 2.1055e-05 0 5.28421e-05 2.18986e-05 0 5.24858e-05 2.27393e-05 0 5.2115e-05 2.35768e-05 0 5.17297e-05 2.44106e-05 0 5.13299e-05 2.52405e-05 0 5.09157e-05 2.6066e-05 0 5.0487e-05 2.68868e-05 0 5.00441e-05 2.77025e-05 0 4.95869e-05 2.85127e-05 0 4.91156e-05 2.93172e-05 0 4.86303e-05 3.01154e-05 0 4.8131e-05 3.09071e-05 0 4.76179e-05 3.16919e-05 0 4.70911e-05 3.24695e-05 0 4.65508e-05 3.32394e-05 0 4.59972e-05 3.40014e-05 0 4.54304e-05 3.47551e-05 0 4.48506e-05 3.55001e-05 0 4.42581e-05 3.62362e-05 0 4.36529e-05 3.6963e-05 0 4.30354e-05 3.76802e-05 0 4.24058e-05 3.83874e-05 0 4.17642e-05 3.90844e-05 0 4.11111e-05 3.97709e-05 0 4.04465e-05 4.04465e-05 0 3.97709e-05 4.11111e-05 0 3.90844e-05 4.17642e-05 0 3.83874e-05 4.24058e-05 0 3.76802e-05 4.30354e-05 0 3.6963e-05 4.36529e-05 0 3.62362e-05 4.42581e-05 0 3.55001e-05 4.48506e-05 0 3.47551e-05 4.54304e-05 0 3.40014e-05 4.59972e-05 0 3.32394e-05 4.65508e-05 0 3.24695e-05 4.70911e-05 0 3.16919e-05 4.76179e-05 0 3.09071e-05 4.8131e-05 0 3.01154e-05 4.86303e-05 0 2.93172e-05 4.91156e-05 0 2.85127e-05 4.95869e-05 0 2.77025e-05 5.00441e-05 0 2.68868e-05 5.0487e-05 0 2.6066e-05 5.09157e-05 0 2.52405e-05 5.13299e-05 0 2.44106e-05 5.17297e-05 0 2.35768e-05 5.2115e-05 0 2.27393e-05 5.24858e-05 0 2.18986e-05 5.28421e-05 0 2.1055e-05 5.31839e-05 0 2.02089e-05 5.35111e-05 0 1.93606e-05 5.38239e-05 0 1.85104e-05 5.41221e-05 0 1.76588e-05 5.44059e-05 0 1.6806e-05 5.46754e-05 0 1.59525e-05 5.49305e-05 0 1.50985e-05 5.51713e-05 0 1.42445e-05 5.5398e-05 0 1.33906e-05 5.56105e-05 0 1.25372e-05 5.58091e-05 0 1.16847e-05 5.59938e-05 0 1.08334e-05 5.61647e-05 0 9.98356e-06 5.6322e-05 0 9.13545e-06 5.64658e-05 0 8.28939e-06 5.65962e-05 0 7.44567e-06 5.67133e-05 0 6.60455e-06 5.68174e-05 0 5.76631e-06 5.69086e-05 0 4.9312e-06 5.6987e-05 0 4.09949e-06 5.70529e-05 0 3.2714e-06 5.71064e-05 0 2.44718e-06 5.71476e-05 0 1.62706e-06 5.71769e-05 0 8.11266e-07 5.71942e-05 0 0 5.72e-05 0 5.67371e-05 0 0 5.67314e-05 8.04701e-07 0 5.67142e-05 1.6139e-06 0 5.66852e-05 2.42738e-06 0 5.66443e-05 3.24493e-06 0 5.65912e-05 4.06631e-06 0 5.65259e-05 4.8913e-06 0 5.64481e-05 5.71965e-06 0 5.63577e-05 6.55111e-06 0 5.62544e-05 7.38542e-06 0 5.61382e-05 8.22232e-06 0 5.60089e-05 9.06153e-06 0 5.58663e-05 9.90277e-06 0 5.57103e-05 1.07458e-05 0 5.55407e-05 1.15902e-05 0 5.53575e-05 1.24358e-05 0 5.51606e-05 1.32822e-05 0 5.49497e-05 1.41292e-05 0 5.47249e-05 1.49764e-05 0 5.4486e-05 1.58234e-05 0 5.4233e-05 1.66701e-05 0 5.39657e-05 1.75159e-05 0 5.36842e-05 1.83606e-05 0 5.33883e-05 1.92039e-05 0 5.30781e-05 2.00453e-05 0 5.27535e-05 2.08846e-05 0 5.24145e-05 2.17214e-05 0 5.20611e-05 2.25553e-05 0 5.16933e-05 2.3386e-05 0 5.13111e-05 2.42131e-05 0 5.09145e-05 2.50363e-05 0 5.05037e-05 2.58551e-05 0 5.00785e-05 2.66692e-05 0 4.96392e-05 2.74783e-05 0 4.91857e-05 2.8282e-05 0 4.87182e-05 2.90799e-05 0 4.82368e-05 2.98717e-05 0 4.77415e-05 3.0657e-05 0 4.72326e-05 3.14355e-05 0 4.67101e-05 3.22067e-05 0 4.61742e-05 3.29704e-05 0 4.5625e-05 3.37263e-05 0 4.50628e-05 3.44739e-05 0 4.44877e-05 3.52129e-05 0 4.38999e-05 3.5943e-05 0 4.32997e-05 3.66639e-05 0 4.26872e-05 3.73753e-05 0 4.20626e-05 3.80768e-05 0 4.14263e-05 3.87681e-05 0 4.07784e-05 3.9449e-05 0 4.01192e-05 4.01192e-05 0 3.9449e-05 4.07784e-05 0 3.87681e-05 4.14263e-05 0 3.80768e-05 4.20626e-05 0 3.73753e-05 4.26872e-05 0 3.66639e-05 4.32997e-05 0 3.5943e-05 4.38999e-05 0 3.52129e-05 4.44877e-05 0 3.44739e-05 4.50628e-05 0 3.37263e-05 4.5625e-05 0 3.29704e-05 4.61742e-05 0 3.22067e-05 4.67101e-05 0 3.14355e-05 4.72326e-05 0 3.0657e-05 4.77415e-05 0 2.98717e-05 4.82368e-05 0 2.90799e-05 4.87182e-05 0 2.8282e-05 4.91857e-05 0 2.74783e-05 4.96392e-05 0 2.66692e-05 5.00785e-05 0 2.58551e-05 5.05037e-05 0 2.50363e-05 5.09145e-05 0 2.42131e-05 5.13111e-05 0 2.3386e-05 5.16933e-05 0 2.25553e-05 5.20611e-05 0 2.17214e-05 5.24145e-05 0 2.08846e-05 5.27535e-05 0 2.00453e-05 5.30781e-05 0 1.92039e-05 5.33883e-05 0 1.83606e-05 5.36842e-05 0 1.75159e-05 5.39657e-05 0 1.66701e-05 5.4233e-05 0 1.58234e-05 5.4486e-05 0 1.49764e-05 5.47249e-05 0 1.41292e-05 5.49497e-05 0 1.32822e-05 5.51606e-05 0 1.24358e-05 5.53575e-05 0 1.15902e-05 5.55407e-05 0 1.07458e-05 5.57103e-05 0 9.90277e-06 5.58663e-05 0 9.06153e-06 5.60089e-05 0 8.22232e-06 5.61382e-05 0 7.38542e-06 5.62544e-05 0 6.55111e-06 5.63577e-05 0 5.71965e-06 5.64481e-05 0 4.8913e-06 5.65259e-05 0 4.06631e-06 5.65912e-05 0 3.24493e-06 5.66443e-05 0 2.42738e-06 5.66852e-05 0 1.6139e-06 5.67142e-05 0 8.04701e-07 5.67314e-05 0 0 5.67371e-05 0 5.62844e-05 0 0 5.62787e-05 7.9828e-07 0 5.62616e-05 1.60102e-06 0 5.62329e-05 2.40801e-06 0 5.61923e-05 3.21903e-06 0 5.61397e-05 4.03386e-06 0 5.60748e-05 4.85227e-06 0 5.59977e-05 5.67401e-06 0 5.59079e-05 6.49883e-06 0 5.58055e-05 7.32649e-06 0 5.56902e-05 8.15671e-06 0 5.55619e-05 8.98922e-06 0 5.54205e-05 9.82375e-06 0 5.52657e-05 1.066e-05 0 5.50975e-05 1.14977e-05 0 5.49158e-05 1.23366e-05 0 5.47204e-05 1.31762e-05 0 5.45112e-05 1.40164e-05 0 5.42882e-05 1.48569e-05 0 5.40512e-05 1.56972e-05 0 5.38002e-05 1.6537e-05 0 5.35351e-05 1.73761e-05 0 5.32558e-05 1.82141e-05 0 5.29623e-05 1.90506e-05 0 5.26546e-05 1.98854e-05 0 5.23326e-05 2.0718e-05 0 5.19963e-05 2.15481e-05 0 5.16457e-05 2.23754e-05 0 5.12808e-05 2.31994e-05 0 5.09016e-05 2.40199e-05 0 5.05082e-05 2.48365e-05 0 5.01006e-05 2.56488e-05 0 4.96789e-05 2.64564e-05 0 4.9243e-05 2.7259e-05 0 4.87932e-05 2.80563e-05 0 4.83294e-05 2.88479e-05 0 4.78518e-05 2.96333e-05 0 4.73605e-05 3.04124e-05 0 4.68557e-05 3.11846e-05 0 4.63373e-05 3.19497e-05 0 4.58057e-05 3.27073e-05 0 4.52609e-05 3.34571e-05 0 4.47032e-05 3.41988e-05 0 4.41327e-05 3.49319e-05 0 4.35496e-05 3.56562e-05 0 4.29542e-05 3.63713e-05 0 4.23465e-05 3.7077e-05 0 4.1727e-05 3.77729e-05 0 4.10957e-05 3.84588e-05 0 4.0453e-05 3.91342e-05 0 3.97991e-05 3.97991e-05 0 3.91342e-05 4.0453e-05 0 3.84588e-05 4.10957e-05 0 3.77729e-05 4.1727e-05 0 3.7077e-05 4.23465e-05 0 3.63713e-05 4.29542e-05 0 3.56562e-05 4.35496e-05 0 3.49319e-05 4.41327e-05 0 3.41988e-05 4.47032e-05 0 3.34571e-05 4.52609e-05 0 3.27073e-05 4.58057e-05 0 3.19497e-05 4.63373e-05 0 3.11846e-05 4.68557e-05 0 3.04124e-05 4.73605e-05 0 2.96333e-05 4.78518e-05 0 2.88479e-05 4.83294e-05 0 2.80563e-05 4.87932e-05 0 2.7259e-05 4.9243e-05 0 2.64564e-05 4.96789e-05 0 2.56488e-05 5.01006e-05 0 2.48365e-05 5.05082e-05 0 2.40199e-05 5.09016e-05 0 2.31994e-05 5.12808e-05 0 2.23754e-05 5.16457e-05 0 2.15481e-05 5.19963e-05 0 2.0718e-05 5.23326e-05 0 1.98854e-05 5.26546e-05 0 1.90506e-05 5.29623e-05 0 1.82141e-05 5.32558e-05 0 1.73761e-05 5.35351e-05 0 1.6537e-05 5.38002e-05 0 1.56972e-05 5.40512e-05 0 1.48569e-05 5.42882e-05 0 1.40164e-05 5.45112e-05 0 1.31762e-05 5.47204e-05 0 1.23366e-05 5.49158e-05 0 1.14977e-05 5.50975e-05 0 1.066e-05 5.52657e-05 0 9.82375e-06 5.54205e-05 0 8.98922e-06 5.55619e-05 0 8.15671e-06 5.56902e-05 0 7.32649e-06 5.58055e-05 0 6.49883e-06 5.59079e-05 0 5.67401e-06 5.59977e-05 0 4.85227e-06 5.60748e-05 0 4.03386e-06 5.61397e-05 0 3.21903e-06 5.61923e-05 0 2.40801e-06 5.62329e-05 0 1.60102e-06 5.62616e-05 0 7.9828e-07 5.62787e-05 0 0 5.62844e-05 0 5.58414e-05 0 0 5.58358e-05 7.91997e-07 0 5.58188e-05 1.58842e-06 0 5.57903e-05 2.38906e-06 0 5.575e-05 3.1937e-06 0 5.56978e-05 4.00212e-06 0 5.56335e-05 4.81408e-06 0 5.5557e-05 5.62936e-06 0 5.54679e-05 6.44769e-06 0 5.53663e-05 7.26883e-06 0 5.52519e-05 8.09251e-06 0 5.51246e-05 8.91847e-06 0 5.49843e-05 9.74643e-06 0 5.48308e-05 1.05761e-05 0 5.46639e-05 1.14072e-05 0 5.44836e-05 1.22395e-05 0 5.42897e-05 1.30725e-05 0 5.40822e-05 1.39061e-05 0 5.38609e-05 1.47399e-05 0 5.36258e-05 1.55736e-05 0 5.33768e-05 1.64069e-05 0 5.31137e-05 1.72394e-05 0 5.28367e-05 1.80708e-05 0 5.25455e-05 1.89007e-05 0 5.22402e-05 1.97289e-05 0 5.19207e-05 2.05549e-05 0 5.15871e-05 2.13785e-05 0 5.12392e-05 2.21993e-05 0 5.08772e-05 2.30168e-05 0 5.0501e-05 2.38309e-05 0 5.01107e-05 2.4641e-05 0 4.97063e-05 2.54469e-05 0 4.92879e-05 2.62482e-05 0 4.88555e-05 2.70445e-05 0 4.84092e-05 2.78355e-05 0 4.79491e-05 2.86208e-05 0 4.74752e-05 2.94001e-05 0 4.69878e-05 3.0173e-05 0 4.64869e-05 3.09392e-05 0 4.59727e-05 3.16983e-05 0 4.54452e-05 3.24499e-05 0 4.49047e-05 3.31938e-05 0 4.43514e-05 3.39296e-05 0 4.37854e-05 3.4657e-05 0 4.32069e-05 3.53756e-05 0 4.26161e-05 3.60851e-05 0 4.20133e-05 3.67852e-05 0 4.13986e-05 3.74757e-05 0 4.07723e-05 3.81561e-05 0 4.01346e-05 3.88263e-05 0 3.94859e-05 3.94859e-05 0 3.88263e-05 4.01346e-05 0 3.81561e-05 4.07723e-05 0 3.74757e-05 4.13986e-05 0 3.67852e-05 4.20133e-05 0 3.60851e-05 4.26161e-05 0 3.53756e-05 4.32069e-05 0 3.4657e-05 4.37854e-05 0 3.39296e-05 4.43514e-05 0 3.31938e-05 4.49047e-05 0 3.24499e-05 4.54452e-05 0 3.16983e-05 4.59727e-05 0 3.09392e-05 4.64869e-05 0 3.0173e-05 4.69878e-05 0 2.94001e-05 4.74752e-05 0 2.86208e-05 4.79491e-05 0 2.78355e-05 4.84092e-05 0 2.70445e-05 4.88555e-05 0 2.62482e-05 4.92879e-05 0 2.54469e-05 4.97063e-05 0 2.4641e-05 5.01107e-05 0 2.38309e-05 5.0501e-05 0 2.30168e-05 5.08772e-05 0 2.21993e-05 5.12392e-05 0 2.13785e-05 5.15871e-05 0 2.05549e-05 5.19207e-05 0 1.97289e-05 5.22402e-05 0 1.89007e-05 5.25455e-05 0 1.80708e-05 5.28367e-05 0 1.72394e-05 5.31137e-05 0 1.64069e-05 5.33768e-05 0 1.55736e-05 5.36258e-05 0 1.47399e-05 5.38609e-05 0 1.39061e-05 5.40822e-05 0 1.30725e-05 5.42897e-05 0 1.22395e-05 5.44836e-05 0 1.14072e-05 5.46639e-05 0 1.05761e-05 5.48308e-05 0 9.74643e-06 5.49843e-05 0 8.91847e-06 5.51246e-05 0 8.09251e-06 5.52519e-05 0 7.26883e-06 5.53663e-05 0 6.44769e-06 5.54679e-05 0 5.62936e-06 5.5557e-05 0 4.81408e-06 5.56335e-05 0 4.00212e-06 5.56978e-05 0 3.1937e-06 5.575e-05 0 2.38906e-06 5.57903e-05 0 1.58842e-06 5.58188e-05 0 7.91997e-07 5.58358e-05 0 0 5.58414e-05 0 5.5408e-05 0 0 5.54024e-05 7.8585e-07 0 5.53856e-05 1.57609e-06 0 5.53573e-05 2.37052e-06 0 5.53173e-05 3.16891e-06 0 5.52655e-05 3.97105e-06 0 5.52017e-05 4.77672e-06 0 5.51257e-05 5.58566e-06 0 5.50374e-05 6.39764e-06 0 5.49366e-05 7.21241e-06 0 5.48231e-05 8.0297e-06 0 5.46968e-05 8.84925e-06 0 5.45575e-05 9.67078e-06 0 5.44052e-05 1.0494e-05 0 5.42396e-05 1.13187e-05 0 5.40607e-05 1.21445e-05 0 5.38683e-05 1.29711e-05 0 5.36624e-05 1.37982e-05 0 5.34429e-05 1.46255e-05 0 5.32096e-05 1.54527e-05 0 5.29625e-05 1.62795e-05 0 5.27015e-05 1.71056e-05 0 5.24266e-05 1.79305e-05 0 5.21376e-05 1.8754e-05 0 5.18347e-05 1.95758e-05 0 5.15177e-05 2.03954e-05 0 5.11866e-05 2.12126e-05 0 5.08415e-05 2.2027e-05 0 5.04823e-05 2.28382e-05 0 5.01091e-05 2.36459e-05 0 4.97218e-05 2.44497e-05 0 4.93205e-05 2.52494e-05 0 4.89053e-05 2.60445e-05 0 4.84763e-05 2.68346e-05 0 4.80334e-05 2.76195e-05 0 4.75769e-05 2.83987e-05 0 4.71067e-05 2.91719e-05 0 4.66231e-05 2.99388e-05 0 4.61261e-05 3.06991e-05 0 4.56158e-05 3.14522e-05 0 4.50925e-05 3.21981e-05 0 4.45562e-05 3.29362e-05 0 4.40072e-05 3.36663e-05 0 4.34455e-05 3.4388e-05 0 4.28715e-05 3.5101e-05 0 4.22853e-05 3.5805e-05 0 4.16872e-05 3.64997e-05 0 4.10772e-05 3.71848e-05 0 4.04558e-05 3.78599e-05 0 3.98231e-05 3.85249e-05 0 3.91794e-05 3.91794e-05 0 3.85249e-05 3.98231e-05 0 3.78599e-05 4.04558e-05 0 3.71848e-05 4.10772e-05 0 3.64997e-05 4.16872e-05 0 3.5805e-05 4.22853e-05 0 3.5101e-05 4.28715e-05 0 3.4388e-05 4.34455e-05 0 3.36663e-05 4.40072e-05 0 3.29362e-05 4.45562e-05 0 3.21981e-05 4.50925e-05 0 3.14522e-05 4.56158e-05 0 3.06991e-05 4.61261e-05 0 2.99388e-05 4.66231e-05 0 2.91719e-05 4.71067e-05 0 2.83987e-05 4.75769e-05 0 2.76195e-05 4.80334e-05 0 2.68346e-05 4.84763e-05 0 2.60445e-05 4.89053e-05 0 2.52494e-05 4.93205e-05 0 2.44497e-05 4.97218e-05 0 2.36459e-05 5.01091e-05 0 2.28382e-05 5.04823e-05 0 2.2027e-05 5.08415e-05 0 2.12126e-05 5.11866e-05 0 2.03954e-05 5.15177e-05 0 1.95758e-05 5.18347e-05 0 1.8754e-05 5.21376e-05 0 1.79305e-05 5.24266e-05 0 1.71056e-05 5.27015e-05 0 1.62795e-05 5.29625e-05 0 1.54527e-05 5.32096e-05 0 1.46255e-05 5.34429e-05 0 1.37982e-05 5.36624e-05 0 1.29711e-05 5.38683e-05 0 1.21445e-05 5.40607e-05 0 1.13187e-05 5.42396e-05 0 1.0494e-05 5.44052e-05 0 9.67078e-06 5.45575e-05 0 8.84925e-06 5.46968e-05 0 8.0297e-06 5.48231e-05 0 7.21241e-06 5.49366e-05 0 6.39764e-06 5.50374e-05 0 5.58566e-06 5.51257e-05 0 4.77672e-06 5.52017e-05 0 3.97105e-06 5.52655e-05 0 3.16891e-06 5.53173e-05 0 2.37052e-06 5.53573e-05 0 1.57609e-06 5.53856e-05 0 7.8585e-07 5.54024e-05 0 0 5.5408e-05 0 5.49838e-05 0 0 5.49783e-05 7.79833e-07 0 5.49616e-05 1.56402e-06 0 5.49335e-05 2.35237e-06 0 5.48938e-05 3.14465e-06 0 5.48424e-05 3.94065e-06 0 5.47791e-05 4.74015e-06 0 5.47037e-05 5.5429e-06 0 5.46161e-05 6.34866e-06 0 5.4516e-05 7.15719e-06 0 5.44034e-05 7.96823e-06 0 5.4278e-05 8.7815e-06 0 5.41398e-05 9.59675e-06 0 5.39887e-05 1.04137e-05 0 5.38244e-05 1.1232e-05 0 5.36468e-05 1.20515e-05 0 5.34559e-05 1.28718e-05 0 5.32516e-05 1.36926e-05 0 5.30337e-05 1.45136e-05 0 5.28022e-05 1.53344e-05 0 5.2557e-05 1.61549e-05 0 5.2298e-05 1.69746e-05 0 5.20252e-05 1.77932e-05 0 5.17385e-05 1.86104e-05 0 5.14379e-05 1.94259e-05 0 5.11233e-05 2.02392e-05 0 5.07948e-05 2.10502e-05 0 5.04523e-05 2.18583e-05 0 5.00958e-05 2.26633e-05 0 4.97254e-05 2.34649e-05 0 4.93411e-05 2.42626e-05 0 4.89429e-05 2.50561e-05 0 4.85309e-05 2.58451e-05 0 4.81052e-05 2.66292e-05 0 4.76657e-05 2.7408e-05 0 4.72127e-05 2.81813e-05 0 4.67461e-05 2.89486e-05 0 4.62662e-05 2.97096e-05 0 4.57729e-05 3.0464e-05 0 4.52666e-05 3.12115e-05 0 4.47473e-05 3.19516e-05 0 4.42151e-05 3.2684e-05 0 4.36702e-05 3.34085e-05 0 4.31129e-05 3.41247e-05 0 4.25433e-05 3.48323e-05 0 4.19616e-05 3.55309e-05 0 4.1368e-05 3.62203e-05 0 4.07628e-05 3.69001e-05 0 4.01461e-05 3.75701e-05 0 3.95182e-05 3.823e-05 0 3.88794e-05 3.88794e-05 0 3.823e-05 3.95182e-05 0 3.75701e-05 4.01461e-05 0 3.69001e-05 4.07628e-05 0 3.62203e-05 4.1368e-05 0 3.55309e-05 4.19616e-05 0 3.48323e-05 4.25433e-05 0 3.41247e-05 4.31129e-05 0 3.34085e-05 4.36702e-05 0 3.2684e-05 4.42151e-05 0 3.19516e-05 4.47473e-05 0 3.12115e-05 4.52666e-05 0 3.0464e-05 4.57729e-05 0 2.97096e-05 4.62662e-05 0 2.89486e-05 4.67461e-05 0 2.81813e-05 4.72127e-05 0 2.7408e-05 4.76657e-05 0 2.66292e-05 4.81052e-05 0 2.58451e-05 4.85309e-05 0 2.50561e-05 4.89429e-05 0 2.42626e-05 4.93411e-05 0 2.34649e-05 4.97254e-05 0 2.26633e-05 5.00958e-05 0 2.18583e-05 5.04523e-05 0 2.10502e-05 5.07948e-05 0 2.02392e-05 5.11233e-05 0 1.94259e-05 5.14379e-05 0 1.86104e-05 5.17385e-05 0 1.77932e-05 5.20252e-05 0 1.69746e-05 5.2298e-05 0 1.61549e-05 5.2557e-05 0 1.53344e-05 5.28022e-05 0 1.45136e-05 5.30337e-05 0 1.36926e-05 5.32516e-05 0 1.28718e-05 5.34559e-05 0 1.20515e-05 5.36468e-05 0 1.1232e-05 5.38244e-05 0 1.04137e-05 5.39887e-05 0 9.59675e-06 5.41398e-05 0 8.7815e-06 5.4278e-05 0 7.96823e-06 5.44034e-05 0 7.15719e-06 5.4516e-05 0 6.34866e-06 5.46161e-05 0 5.5429e-06 5.47037e-05 0 4.74015e-06 5.47791e-05 0 3.94065e-06 5.48424e-05 0 3.14465e-06 5.48938e-05 0 2.35237e-06 5.49335e-05 0 1.56402e-06 5.49616e-05 0 7.79833e-07 5.49783e-05 0 0 5.49838e-05 0 5.45686e-05 0 0 5.45631e-05 7.73945e-07 0 5.45465e-05 1.55221e-06 0 5.45186e-05 2.3346e-06 0 5.44793e-05 3.1209e-06 0 5.44283e-05 3.9109e-06 0 5.43654e-05 4.70435e-06 0 5.42906e-05 5.50104e-06 0 5.42036e-05 6.30072e-06 0 5.41043e-05 7.10314e-06 0 5.39925e-05 7.90805e-06 0 5.38682e-05 8.71519e-06 0 5.3731e-05 9.52428e-06 0 5.3581e-05 1.0335e-05 0 5.34179e-05 1.11472e-05 0 5.32417e-05 1.19605e-05 0 5.30523e-05 1.27746e-05 0 5.28495e-05 1.35892e-05 0 5.26332e-05 1.4404e-05 0 5.24035e-05 1.52186e-05 0 5.21601e-05 1.60329e-05 0 5.19031e-05 1.68464e-05 0 5.16323e-05 1.76589e-05 0 5.13478e-05 1.84699e-05 0 5.10494e-05 1.92792e-05 0 5.07373e-05 2.00864e-05 0 5.04112e-05 2.08912e-05 0 5.00713e-05 2.16933e-05 0 4.97175e-05 2.24922e-05 0 4.93499e-05 2.32877e-05 0 4.89685e-05 2.40793e-05 0 4.85734e-05 2.48669e-05 0 4.81645e-05 2.56499e-05 0 4.77419e-05 2.64281e-05 0 4.73058e-05 2.7201e-05 0 4.68561e-05 2.79685e-05 0 4.63931e-05 2.873e-05 0 4.59168e-05 2.94853e-05 0 4.54273e-05 3.0234e-05 0 4.49248e-05 3.09758e-05 0 4.44094e-05 3.17103e-05 0 4.38812e-05 3.24372e-05 0 4.33405e-05 3.31562e-05 0 4.27874e-05 3.3867e-05 0 4.22221e-05 3.45692e-05 0 4.16447e-05 3.52626e-05 0 4.10556e-05 3.59467e-05 0 4.04549e-05 3.66214e-05 0 3.98429e-05 3.72864e-05 0 3.92198e-05 3.79413e-05 0 3.85858e-05 3.85858e-05 0 3.79413e-05 3.92198e-05 0 3.72864e-05 3.98429e-05 0 3.66214e-05 4.04549e-05 0 3.59467e-05 4.10556e-05 0 3.52626e-05 4.16447e-05 0 3.45692e-05 4.22221e-05 0 3.3867e-05 4.27874e-05 0 3.31562e-05 4.33405e-05 0 3.24372e-05 4.38812e-05 0 3.17103e-05 4.44094e-05 0 3.09758e-05 4.49248e-05 0 3.0234e-05 4.54273e-05 0 2.94853e-05 4.59168e-05 0 2.873e-05 4.63931e-05 0 2.79685e-05 4.68561e-05 0 2.7201e-05 4.73058e-05 0 2.64281e-05 4.77419e-05 0 2.56499e-05 4.81645e-05 0 2.48669e-05 4.85734e-05 0 2.40793e-05 4.89685e-05 0 2.32877e-05 4.93499e-05 0 2.24922e-05 4.97175e-05 0 2.16933e-05 5.00713e-05 0 2.08912e-05 5.04112e-05 0 2.00864e-05 5.07373e-05 0 1.92792e-05 5.10494e-05 0 1.84699e-05 5.13478e-05 0 1.76589e-05 5.16323e-05 0 1.68464e-05 5.19031e-05 0 1.60329e-05 5.21601e-05 0 1.52186e-05 5.24035e-05 0 1.4404e-05 5.26332e-05 0 1.35892e-05 5.28495e-05 0 1.27746e-05 5.30523e-05 0 1.19605e-05 5.32417e-05 0 1.11472e-05 5.34179e-05 0 1.0335e-05 5.3581e-05 0 9.52428e-06 5.3731e-05 0 8.71519e-06 5.38682e-05 0 7.90805e-06 5.39925e-05 0 7.10314e-06 5.41043e-05 0 6.30072e-06 5.42036e-05 0 5.50104e-06 5.42906e-05 0 4.70435e-06 5.43654e-05 0 3.9109e-06 5.44283e-05 0 3.1209e-06 5.44793e-05 0 2.3346e-06 5.45186e-05 0 1.55221e-06 5.45465e-05 0 7.73945e-07 5.45631e-05 0 0 5.45686e-05 0 5.41621e-05 0 0 5.41567e-05 7.6818e-07 0 5.41402e-05 1.54065e-06 0 5.41125e-05 2.31721e-06 0 5.40735e-05 3.09766e-06 0 5.40229e-05 3.88176e-06 0 5.39605e-05 4.66931e-06 0 5.38862e-05 5.46007e-06 0 5.37999e-05 6.25379e-06 0 5.37013e-05 7.05023e-06 0 5.35904e-05 7.84915e-06 0 5.34669e-05 8.65027e-06 0 5.33308e-05 9.45333e-06 0 5.31818e-05 1.02581e-05 0 5.302e-05 1.10642e-05 0 5.28451e-05 1.18714e-05 0 5.26571e-05 1.26794e-05 0 5.24558e-05 1.34879e-05 0 5.22412e-05 1.42967e-05 0 5.20131e-05 1.51053e-05 0 5.17716e-05 1.59135e-05 0 5.15165e-05 1.67209e-05 0 5.12477e-05 1.75273e-05 0 5.09653e-05 1.83323e-05 0 5.06692e-05 1.91356e-05 0 5.03593e-05 1.99368e-05 0 5.00357e-05 2.07356e-05 0 4.96983e-05 2.15317e-05 0 4.93472e-05 2.23247e-05 0 4.89823e-05 2.31142e-05 0 4.86038e-05 2.39e-05 0 4.82115e-05 2.46816e-05 0 4.78057e-05 2.54588e-05 0 4.73863e-05 2.62312e-05 0 4.69534e-05 2.69984e-05 0 4.65071e-05 2.77601e-05 0 4.60475e-05 2.8516e-05 0 4.55748e-05 2.92656e-05 0 4.50889e-05 3.00088e-05 0 4.45901e-05 3.0745e-05 0 4.40786e-05 3.14741e-05 0 4.35543e-05 3.21956e-05 0 4.30176e-05 3.29093e-05 0 4.24687e-05 3.36147e-05 0 4.19075e-05 3.43117e-05 0 4.13345e-05 3.49999e-05 0 4.07498e-05 3.5679e-05 0 4.01536e-05 3.63487e-05 0 3.95461e-05 3.70086e-05 0 3.89277e-05 3.76587e-05 0 3.82984e-05 3.82984e-05 0 3.76587e-05 3.89277e-05 0 3.70086e-05 3.95461e-05 0 3.63487e-05 4.01536e-05 0 3.5679e-05 4.07498e-05 0 3.49999e-05 4.13345e-05 0 3.43117e-05 4.19075e-05 0 3.36147e-05 4.24687e-05 0 3.29093e-05 4.30176e-05 0 3.21956e-05 4.35543e-05 0 3.14741e-05 4.40786e-05 0 3.0745e-05 4.45901e-05 0 3.00088e-05 4.50889e-05 0 2.92656e-05 4.55748e-05 0 2.8516e-05 4.60475e-05 0 2.77601e-05 4.65071e-05 0 2.69984e-05 4.69534e-05 0 2.62312e-05 4.73863e-05 0 2.54588e-05 4.78057e-05 0 2.46816e-05 4.82115e-05 0 2.39e-05 4.86038e-05 0 2.31142e-05 4.89823e-05 0 2.23247e-05 4.93472e-05 0 2.15317e-05 4.96983e-05 0 2.07356e-05 5.00357e-05 0 1.99368e-05 5.03593e-05 0 1.91356e-05 5.06692e-05 0 1.83323e-05 5.09653e-05 0 1.75273e-05 5.12477e-05 0 1.67209e-05 5.15165e-05 0 1.59135e-05 5.17716e-05 0 1.51053e-05 5.20131e-05 0 1.42967e-05 5.22412e-05 0 1.34879e-05 5.24558e-05 0 1.26794e-05 5.26571e-05 0 1.18714e-05 5.28451e-05 0 1.10642e-05 5.302e-05 0 1.02581e-05 5.31818e-05 0 9.45333e-06 5.33308e-05 0 8.65027e-06 5.34669e-05 0 7.84915e-06 5.35904e-05 0 7.05023e-06 5.37013e-05 0 6.25379e-06 5.37999e-05 0 5.46007e-06 5.38862e-05 0 4.66931e-06 5.39605e-05 0 3.88176e-06 5.40229e-05 0 3.09766e-06 5.40735e-05 0 2.31721e-06 5.41125e-05 0 1.54065e-06 5.41402e-05 0 7.6818e-07 5.41567e-05 0 0 5.41621e-05 0 5.37642e-05 0 0 5.37587e-05 7.62535e-07 0 5.37424e-05 1.52933e-06 0 5.37149e-05 2.30019e-06 0 5.36762e-05 3.0749e-06 0 5.36259e-05 3.85324e-06 0 5.3564e-05 4.635e-06 0 5.34903e-05 5.41995e-06 0 5.34046e-05 6.20784e-06 0 5.33067e-05 6.99843e-06 0 5.31966e-05 7.79147e-06 0 5.3074e-05 8.58671e-06 0 5.29389e-05 9.38387e-06 0 5.27911e-05 1.01827e-05 0 5.26304e-05 1.09829e-05 0 5.24568e-05 1.17842e-05 0 5.22702e-05 1.25862e-05 0 5.20704e-05 1.33888e-05 0 5.18573e-05 1.41916e-05 0 5.1631e-05 1.49943e-05 0 5.13912e-05 1.57966e-05 0 5.11379e-05 1.65981e-05 0 5.08712e-05 1.73985e-05 0 5.05908e-05 1.81976e-05 0 5.02969e-05 1.8995e-05 0 4.99893e-05 1.97903e-05 0 4.9668e-05 2.05832e-05 0 4.93331e-05 2.13735e-05 0 4.89846e-05 2.21606e-05 0 4.86224e-05 2.29444e-05 0 4.82466e-05 2.37244e-05 0 4.78573e-05 2.45003e-05 0 4.74544e-05 2.52718e-05 0 4.70381e-05 2.60385e-05 0 4.66084e-05 2.68e-05 0 4.61654e-05 2.75562e-05 0 4.57092e-05 2.83065e-05 0 4.52399e-05 2.90506e-05 0 4.47576e-05 2.97883e-05 0 4.42625e-05 3.05191e-05 0 4.37547e-05 3.12428e-05 0 4.32343e-05 3.1959e-05 0 4.27016e-05 3.26674e-05 0 4.21566e-05 3.33677e-05 0 4.15996e-05 3.40596e-05 0 4.10308e-05 3.47427e-05 0 4.04504e-05 3.54168e-05 0 3.98586e-05 3.60816e-05 0 3.92556e-05 3.67367e-05 0 3.86416e-05 3.73819e-05 0 3.8017e-05 3.8017e-05 0 3.73819e-05 3.86416e-05 0 3.67367e-05 3.92556e-05 0 3.60816e-05 3.98586e-05 0 3.54168e-05 4.04504e-05 0 3.47427e-05 4.10308e-05 0 3.40596e-05 4.15996e-05 0 3.33677e-05 4.21566e-05 0 3.26674e-05 4.27016e-05 0 3.1959e-05 4.32343e-05 0 3.12428e-05 4.37547e-05 0 3.05191e-05 4.42625e-05 0 2.97883e-05 4.47576e-05 0 2.90506e-05 4.52399e-05 0 2.83065e-05 4.57092e-05 0 2.75562e-05 4.61654e-05 0 2.68e-05 4.66084e-05 0 2.60385e-05 4.70381e-05 0 2.52718e-05 4.74544e-05 0 2.45003e-05 4.78573e-05 0 2.37244e-05 4.82466e-05 0 2.29444e-05 4.86224e-05 0 2.21606e-05 4.89846e-05 0 2.13735e-05 4.93331e-05 0 2.05832e-05 4.9668e-05 0 1.97903e-05 4.99893e-05 0 1.8995e-05 5.02969e-05 0 1.81976e-05 5.05908e-05 0 1.73985e-05 5.08712e-05 0 1.65981e-05 5.11379e-05 0 1.57966e-05 5.13912e-05 0 1.49943e-05 5.1631e-05 0 1.41916e-05 5.18573e-05 0 1.33888e-05 5.20704e-05 0 1.25862e-05 5.22702e-05 0 1.17842e-05 5.24568e-05 0 1.09829e-05 5.26304e-05 0 1.01827e-05 5.27911e-05 0 9.38387e-06 5.29389e-05 0 8.58671e-06 5.3074e-05 0 7.79147e-06 5.31966e-05 0 6.99843e-06 5.33067e-05 0 6.20784e-06 5.34046e-05 0 5.41995e-06 5.34903e-05 0 4.635e-06 5.3564e-05 0 3.85324e-06 5.36259e-05 0 3.0749e-06 5.36762e-05 0 2.30019e-06 5.37149e-05 0 1.52933e-06 5.37424e-05 0 7.62535e-07 5.37587e-05 0 0 5.37642e-05 0 5.33744e-05 0 0 5.33691e-05 7.57008e-07 0 5.33528e-05 1.51824e-06 0 5.33256e-05 2.28351e-06 0 5.32871e-05 3.05261e-06 0 5.32372e-05 3.82531e-06 0 5.31757e-05 4.6014e-06 0 5.31025e-05 5.38066e-06 0 5.30174e-05 6.16284e-06 0 5.29203e-05 6.9477e-06 0 5.2811e-05 7.73499e-06 0 5.26893e-05 8.52447e-06 0 5.25552e-05 9.31585e-06 0 5.24084e-05 1.01089e-05 0 5.22489e-05 1.09033e-05 0 5.20766e-05 1.16987e-05 0 5.18913e-05 1.2495e-05 0 5.16929e-05 1.32918e-05 0 5.14814e-05 1.40887e-05 0 5.12567e-05 1.48856e-05 0 5.10187e-05 1.5682e-05 0 5.07672e-05 1.64778e-05 0 5.05024e-05 1.72724e-05 0 5.02241e-05 1.80657e-05 0 4.99323e-05 1.88573e-05 0 4.96269e-05 1.96468e-05 0 4.9308e-05 2.0434e-05 0 4.89755e-05 2.12185e-05 0 4.86295e-05 2.2e-05 0 4.827e-05 2.2778e-05 0 4.78969e-05 2.35524e-05 0 4.75104e-05 2.43227e-05 0 4.71104e-05 2.50886e-05 0 4.66971e-05 2.58497e-05 0 4.62705e-05 2.66058e-05 0 4.58307e-05 2.73564e-05 0 4.53778e-05 2.81013e-05 0 4.49119e-05 2.884e-05 0 4.44332e-05 2.95723e-05 0 4.39416e-05 3.02979e-05 0 4.34375e-05 3.10163e-05 0 4.29209e-05 3.17274e-05 0 4.2392e-05 3.24306e-05 0 4.1851e-05 3.31259e-05 0 4.12981e-05 3.38127e-05 0 4.07334e-05 3.44909e-05 0 4.01572e-05 3.51601e-05 0 3.95696e-05 3.582e-05 0 3.8971e-05 3.64704e-05 0 3.83615e-05 3.7111e-05 0 3.77414e-05 3.77414e-05 0 3.7111e-05 3.83615e-05 0 3.64704e-05 3.8971e-05 0 3.582e-05 3.95696e-05 0 3.51601e-05 4.01572e-05 0 3.44909e-05 4.07334e-05 0 3.38127e-05 4.12981e-05 0 3.31259e-05 4.1851e-05 0 3.24306e-05 4.2392e-05 0 3.17274e-05 4.29209e-05 0 3.10163e-05 4.34375e-05 0 3.02979e-05 4.39416e-05 0 2.95723e-05 4.44332e-05 0 2.884e-05 4.49119e-05 0 2.81013e-05 4.53778e-05 0 2.73564e-05 4.58307e-05 0 2.66058e-05 4.62705e-05 0 2.58497e-05 4.66971e-05 0 2.50886e-05 4.71104e-05 0 2.43227e-05 4.75104e-05 0 2.35524e-05 4.78969e-05 0 2.2778e-05 4.827e-05 0 2.2e-05 4.86295e-05 0 2.12185e-05 4.89755e-05 0 2.0434e-05 4.9308e-05 0 1.96468e-05 4.96269e-05 0 1.88573e-05 4.99323e-05 0 1.80657e-05 5.02241e-05 0 1.72724e-05 5.05024e-05 0 1.64778e-05 5.07672e-05 0 1.5682e-05 5.10187e-05 0 1.48856e-05 5.12567e-05 0 1.40887e-05 5.14814e-05 0 1.32918e-05 5.16929e-05 0 1.2495e-05 5.18913e-05 0 1.16987e-05 5.20766e-05 0 1.09033e-05 5.22489e-05 0 1.01089e-05 5.24084e-05 0 9.31585e-06 5.25552e-05 0 8.52447e-06 5.26893e-05 0 7.73499e-06 5.2811e-05 0 6.9477e-06 5.29203e-05 0 6.16284e-06 5.30174e-05 0 5.38066e-06 5.31025e-05 0 4.6014e-06 5.31757e-05 0 3.82531e-06 5.32372e-05 0 3.05261e-06 5.32871e-05 0 2.28351e-06 5.33256e-05 0 1.51824e-06 5.33528e-05 0 7.57008e-07 5.33691e-05 0 0 5.33744e-05 0 5.29927e-05 0 0 5.29874e-05 7.51594e-07 0 5.29713e-05 1.50739e-06 0 5.29442e-05 2.26718e-06 0 5.2906e-05 3.03078e-06 0 5.28565e-05 3.79795e-06 0 5.27954e-05 4.5685e-06 0 5.27228e-05 5.34218e-06 0 5.26383e-05 6.11876e-06 0 5.25419e-05 6.89801e-06 0 5.24333e-05 7.67968e-06 0 5.23125e-05 8.4635e-06 0 5.21793e-05 9.24923e-06 0 5.20336e-05 1.00366e-05 0 5.18753e-05 1.08253e-05 0 5.17041e-05 1.16151e-05 0 5.15202e-05 1.24057e-05 0 5.13232e-05 1.31967e-05 0 5.11133e-05 1.3988e-05 0 5.08901e-05 1.47791e-05 0 5.06538e-05 1.55699e-05 0 5.04042e-05 1.63599e-05 0 5.01412e-05 1.71489e-05 0 4.98649e-05 1.79365e-05 0 4.95752e-05 1.87224e-05 0 4.9272e-05 1.95063e-05 0 4.89554e-05 2.02879e-05 0 4.86253e-05 2.10668e-05 0 4.82818e-05 2.18426e-05 0 4.79248e-05 2.26151e-05 0 4.75544e-05 2.3384e-05 0 4.71706e-05 2.41487e-05 0 4.67735e-05 2.49092e-05 0 4.63632e-05 2.56649e-05 0 4.59396e-05 2.64155e-05 0 4.5503e-05 2.71608e-05 0 4.50533e-05 2.79003e-05 0 4.45908e-05 2.86338e-05 0 4.41154e-05 2.93609e-05 0 4.36274e-05 3.00812e-05 0 4.31269e-05 3.07945e-05 0 4.2614e-05 3.15005e-05 0 4.20889e-05 3.21987e-05 0 4.15517e-05 3.2889e-05 0 4.10027e-05 3.35709e-05 0 4.04421e-05 3.42442e-05 0 3.987e-05 3.49086e-05 0 3.92867e-05 3.55639e-05 0 3.86923e-05 3.62096e-05 0 3.80872e-05 3.68456e-05 0 3.74715e-05 3.74715e-05 0 3.68456e-05 3.80872e-05 0 3.62096e-05 3.86923e-05 0 3.55639e-05 3.92867e-05 0 3.49086e-05 3.987e-05 0 3.42442e-05 4.04421e-05 0 3.35709e-05 4.10027e-05 0 3.2889e-05 4.15517e-05 0 3.21987e-05 4.20889e-05 0 3.15005e-05 4.2614e-05 0 3.07945e-05 4.31269e-05 0 3.00812e-05 4.36274e-05 0 2.93609e-05 4.41154e-05 0 2.86338e-05 4.45908e-05 0 2.79003e-05 4.50533e-05 0 2.71608e-05 4.5503e-05 0 2.64155e-05 4.59396e-05 0 2.56649e-05 4.63632e-05 0 2.49092e-05 4.67735e-05 0 2.41487e-05 4.71706e-05 0 2.3384e-05 4.75544e-05 0 2.26151e-05 4.79248e-05 0 2.18426e-05 4.82818e-05 0 2.10668e-05 4.86253e-05 0 2.02879e-05 4.89554e-05 0 1.95063e-05 4.9272e-05 0 1.87224e-05 4.95752e-05 0 1.79365e-05 4.98649e-05 0 1.71489e-05 5.01412e-05 0 1.63599e-05 5.04042e-05 0 1.55699e-05 5.06538e-05 0 1.47791e-05 5.08901e-05 0 1.3988e-05 5.11133e-05 0 1.31967e-05 5.13232e-05 0 1.24057e-05 5.15202e-05 0 1.16151e-05 5.17041e-05 0 1.08253e-05 5.18753e-05 0 1.00366e-05 5.20336e-05 0 9.24923e-06 5.21793e-05 0 8.4635e-06 5.23125e-05 0 7.67968e-06 5.24333e-05 0 6.89801e-06 5.25419e-05 0 6.11876e-06 5.26383e-05 0 5.34218e-06 5.27228e-05 0 4.5685e-06 5.27954e-05 0 3.79795e-06 5.28565e-05 0 3.03078e-06 5.2906e-05 0 2.26718e-06 5.29442e-05 0 1.50739e-06 5.29713e-05 0 7.51594e-07 5.29874e-05 0 0 5.29927e-05 0 5.26188e-05 0 0 5.26135e-05 7.46291e-07 0 5.25975e-05 1.49675e-06 0 5.25707e-05 2.25119e-06 0 5.25327e-05 3.00939e-06 0 5.24835e-05 3.77116e-06 0 5.24229e-05 4.53626e-06 0 5.23508e-05 5.30449e-06 0 5.22669e-05 6.07559e-06 0 5.21712e-05 6.84935e-06 0 5.20634e-05 7.6255e-06 0 5.19434e-05 8.40379e-06 0 5.18112e-05 9.18397e-06 0 5.16665e-05 9.96577e-06 0 5.15093e-05 1.07489e-05 0 5.13394e-05 1.15331e-05 0 5.11567e-05 1.23181e-05 0 5.09611e-05 1.31036e-05 0 5.07526e-05 1.38893e-05 0 5.05311e-05 1.46749e-05 0 5.02964e-05 1.546e-05 0 5.00486e-05 1.62445e-05 0 4.97875e-05 1.70279e-05 0 4.95131e-05 1.781e-05 0 4.92254e-05 1.85903e-05 0 4.89244e-05 1.93687e-05 0 4.861e-05 2.01448e-05 0 4.82822e-05 2.09181e-05 0 4.79411e-05 2.16885e-05 0 4.75866e-05 2.24556e-05 0 4.72189e-05 2.3219e-05 0 4.68378e-05 2.39784e-05 0 4.64435e-05 2.47334e-05 0 4.60361e-05 2.54838e-05 0 4.56155e-05 2.62291e-05 0 4.51819e-05 2.69691e-05 0 4.47355e-05 2.77035e-05 0 4.42762e-05 2.84318e-05 0 4.38042e-05 2.91537e-05 0 4.33196e-05 2.9869e-05 0 4.28226e-05 3.05773e-05 0 4.23133e-05 3.12782e-05 0 4.17919e-05 3.19715e-05 0 4.12585e-05 3.26569e-05 0 4.07134e-05 3.3334e-05 0 4.01567e-05 3.40026e-05 0 3.95887e-05 3.46624e-05 0 3.90095e-05 3.53129e-05 0 3.84193e-05 3.59541e-05 0 3.78185e-05 3.65856e-05 0 3.72071e-05 3.72071e-05 0 3.65856e-05 3.78185e-05 0 3.59541