<?xml version="1.0"?> 
<VTKFile type="StructuredGrid" version="0.1"> 
<StructuredGrid WholeExtent="0 200 0 200 0 0"> 
<Piece Extent="0 200 0 200 0 0"> 
<PointData Scalars="Stress components">
<DataArray type="Float32" Name="sigma_xx" format="ascii" NumberOfComponents="1"> 
0.0245017 0.0249966 0.0255218 0.0260773 0.0266637 0.027281 0.0279297 0.0286101 0.0293224 0.030067 0.0308442 0.0316543 0.0324976 0.0333745 0.0342854 0.0352304 0.0362101 0.0372247 0.0382746 0.0393602 0.0404818 0.0416397 0.0428345 0.0440663 0.0453357 0.046643 0.0479886 0.049373 0.0507964 0.0522593 0.0537622 0.0553055 0.0568895 0.0585148 0.0601817 0.0618908 0.0636424 0.0654371 0.0672752 0.0691573 0.0710839 0.0730554 0.0750724 0.0771353 0.0792446 0.081401 0.0836048 0.0858566 0.088157 0.0905065 0.0929057 0.0919391 0.0910417 0.0902142 0.0894574 0.0887722 0.0881594 0.0876199 0.0871544 0.0867638 0.0864492 0.0862112 0.0860509 0.0859692 0.085967 0.0860453 0.086205 0.0864472 0.0867729 0.087183 0.0876785 0.0882607 0.0889305 0.089689 0.0905373 0.0914766 0.092508 0.0936326 0.0948517 0.0961664 0.097578 0.0990877 0.100697 0.102407 0.104218 0.106134 0.108153 0.110279 0.112512 0.114855 0.117307 0.119872 0.122549 0.125342 0.128251 0.131278 0.134425 0.137693 0.141084 0.1446 0.148242 0.146888 0.145581 0.144322 0.143111 0.14195 0.140839 0.139778 0.138769 0.137812 0.136908 0.136058 0.135262 0.134522 0.133838 0.133211 0.132641 0.132131 0.13168 0.13129 0.130961 0.130695 0.130493 0.130355 0.130282 0.130276 0.130337 0.130467 0.130667 0.130937 0.13128 0.131696 0.132186 0.132752 0.133395 0.134117 0.134917 0.135799 0.136762 0.13781 0.138942 0.140161 0.141469 0.142865 0.144353 0.145934 0.147609 0.149381 0.15125 0.153219 0.155289 0.153909 0.152524 0.151134 0.149738 0.148336 0.146929 0.145515 0.144096 0.142671 0.14124 0.139802 0.138358 0.136907 0.135449 0.133985 0.132514 0.131035 0.12955 0.128057 0.126556 0.125048 0.123531 0.122007 0.120475 0.118934 0.117384 0.115826 0.114259 0.112682 0.111097 0.109501 0.107896 0.106281 0.104656 0.10302 0.101373 0.0997156 0.0980468 0.0963665 0.0946744 0.0929702 0.0912536 0.0895243 0.0877821 0.0860265 0.0842572 0.082474 0.0806763 0.078864 0.0770365 0.0265607 0.02703 0.0275297 0.02806 0.0286214 0.0292141 0.0298383 0.0304945 0.0311829 0.0319039 0.0326576 0.0334446 0.0342651 0.0351194 0.036008 0.036931 0.0378889 0.0388821 0.0399108 0.0409755 0.0420764 0.0432141 0.0443888 0.045601 0.046851 0.0481392 0.049466 0.0508319 0.0522371 0.0536823 0.0551676 0.0566937 0.0582609 0.0598697 0.0615204 0.0632137 0.0649498 0.0667293 0.0685527 0.0704204 0.0723329 0.0742907 0.0762944 0.0783443 0.0804411 0.0825852 0.0847772 0.0870176 0.0893069 0.0916458 0.0940347 0.0930506 0.0921351 0.091289 0.0905131 0.0898082 0.0891752 0.0886148 0.088128 0.0877155 0.0873784 0.0871173 0.0869334 0.0868274 0.0868003 0.0868532 0.0869868 0.0872023 0.0875006 0.0878827 0.0883496 0.0889025 0.0895423 0.0902702 0.0910872 0.0919945 0.0929932 0.0940844 0.0952694 0.0965492 0.0979253 0.0993987 0.100971 0.102643 0.104416 0.106292 0.108271 0.110356 0.112547 0.114847 0.117256 0.119776 0.122409 0.125155 0.128018 0.130997 0.134095 0.137313 0.140654 0.144118 0.147708 0.146351 0.145041 0.143778 0.142563 0.141396 0.140278 0.13921 0.138193 0.137227 0.136314 0.135453 0.134646 0.133893 0.133195 0.132554 0.13197 0.131443 0.130975 0.130567 0.130219 0.129933 0.129709 0.129549 0.129453 0.129422 0.129458 0.129561 0.129733 0.129975 0.130288 0.130672 0.13113 0.131662 0.13227 0.132955 0.133718 0.134561 0.135484 0.13649 0.13758 0.138754 0.140016 0.141365 0.142804 0.144334 0.145958 0.147676 0.14949 0.151402 0.153414 0.152038 0.150655 0.149265 0.147869 0.146467 0.145057 0.143641 0.142218 0.140788 0.13935 0.137905 0.136452 0.134991 0.133523 0.132046 0.130561 0.129068 0.127566 0.126056 0.124536 0.123008 0.12147 0.119922 0.118365 0.116798 0.115221 0.113634 0.112035 0.110426 0.108806 0.107175 0.105532 0.103877 0.102211 0.100531 0.0988395 0.0971347 0.0954165 0.0936848 0.0919391 0.0901791 0.0884046 0.086615 0.0848101 0.0829894 0.0811526 0.0792993 0.077429 0.0755412 0.0736356 0.0285914 0.0290348 0.0295089 0.030014 0.0305503 0.0311181 0.0317178 0.0323496 0.033014 0.0337111 0.0344413 0.035205 0.0360025 0.0368341 0.0377002 0.038601 0.039537 0.0405086 0.041516 0.0425596 0.0436398 0.044757 0.0459116 0.0471039 0.0483343 0.0496033 0.0509111 0.0522583 0.0536453 0.0550724 0.0565401 0.0580489 0.0595991 0.0611911 0.0628256 0.0645028 0.0662232 0.0679875 0.0697959 0.071649 0.0735472 0.0754912 0.0774813 0.0795181 0.0816021 0.0837338 0.0859138 0.0881425 0.0904207 0.0927487 0.0951272 0.0941258 0.0931925 0.0923281 0.0915334 0.0908091 0.0901561 0.0895752 0.0890673 0.0886332 0.0882739 0.0879901 0.0877827 0.0876528 0.0876012 0.0876289 0.0877367 0.0879258 0.0881971 0.0885515 0.0889901 0.089514 0.0901242 0.0908218 0.0916078 0.0924834 0.0934498 0.0945079 0.0956591 0.0969045 0.0982453 0.0996827 0.101218 0.102853 0.104587 0.106424 0.108364 0.110408 0.112558 0.114816 0.117182 0.119658 0.122245 0.124946 0.127762 0.130694 0.133744 0.136913 0.140203 0.143616 0.147154 0.145796 0.144483 0.143216 0.141996 0.140824 0.139701 0.138626 0.137601 0.136627 0.135704 0.134833 0.134015 0.13325 0.13254 0.131885 0.131286 0.130743 0.130259 0.129833 0.129467 0.129161 0.128916 0.128734 0.128615 0.128561 0.128572 0.128649 0.128794 0.129007 0.12929 0.129644 0.13007 0.130569 0.131142 0.131792 0.132518 0.133322 0.134206 0.135171 0.136218 0.137349 0.138565 0.139867 0.141258 0.142739 0.144311 0.145976 0.147736 0.149593 0.151547 0.150174 0.148794 0.147406 0.146011 0.144608 0.143198 0.141779 0.140352 0.138918 0.137474 0.136022 0.134561 0.133092 0.131613 0.130125 0.128627 0.12712 0.125603 0.124076 0.122538 0.12099 0.119432 0.117862 0.116281 0.114689 0.113085 0.111469 0.109841 0.1082 0.106547 0.10488 0.103201 0.101507 0.0997999 0.0980783 0.0963421 0.094591 0.0928245 0.0910424 0.0892442 0.0874296 0.0855982 0.0837494 0.081883 0.0799985 0.0780953 0.0761731 0.0742313 0.0722695 0.070287 0.0305937 0.0310112 0.0314596 0.0319391 0.0324502 0.0329931 0.033568 0.0341754 0.0348155 0.0354887 0.0361953 0.0369355 0.0377099 0.0385186 0.039362 0.0402405 0.0411545 0.0421042 0.0430901 0.0441126 0.0451719 0.0462685 0.0474027 0.048575 0.0497857 0.0510352 0.052324 0.0536524 0.0550209 0.0564298 0.0578797 0.0593709 0.0609039 0.0624791 0.064097 0.0657581 0.0674627 0.0692114 0.0710047 0.072843 0.0747268 0.0766567 0.0786331 0.0806566 0.0827276 0.0848468 0.0870145 0.0892315 0.0914982 0.0938153 0.0961832 0.0951648 0.094214 0.0933315 0.0925182 0.0917748 0.0911021 0.090501 0.0899724 0.089517 0.0891357 0.0888294 0.088599 0.0884454 0.0883696 0.0883724 0.0884548 0.0886178 0.0888623 0.0891894 0.0896001 0.0900953 0.0906762 0.0913438 0.0920992 0.0929435 0.0938778 0.0949032 0.096021 0.0972322 0.0985382 0.09994 0.101439 0.103036 0.104733 0.106531 0.108432 0.110436 0.112545 0.11476 0.117083 0.119516 0.122059 0.124715 0.127485 0.130369 0.133371 0.136492 0.139732 0.143095 0.146581 0.145221 0.143905 0.142636 0.141412 0.140235 0.139106 0.138026 0.136994 0.136011 0.13508 0.134199 0.13337 0.132594 0.131871 0.131203 0.130589 0.130032 0.129531 0.129088 0.128704 0.128379 0.128114 0.127911 0.12777 0.127692 0.127678 0.12773 0.127848 0.128034 0.128288 0.128611 0.129006 0.129472 0.130012 0.130626 0.131316 0.132082 0.132927 0.133852 0.134857 0.135945 0.137116 0.138373 0.139716 0.141148 0.14267 0.144283 0.145989 0.14779 0.149687 0.148319 0.146942 0.145557 0.144163 0.142761 0.141349 0.139929 0.1385 0.137061 0.135613 0.134155 0.132687 0.131209 0.129721 0.128222 0.126712 0.125192 0.12366 0.122117 0.120562 0.118996 0.117417 0.115826 0.114222 0.112605 0.110975 0.109332 0.107674 0.106003 0.104317 0.102617 0.100901 0.0991701 0.0974233 0.0956603 0.0938809 0.0920845 0.0902708 0.0884394 0.0865898 0.0847216 0.0828344 0.0809276 0.0790008 0.0770536 0.0750852 0.0730954 0.0710833 0.0690486 0.0669906 0.0325677 0.032959 0.0333816 0.0338355 0.0343212 0.034839 0.0353891 0.0359718 0.0365876 0.0372367 0.0379194 0.0386361 0.0393871 0.0401728 0.0409935 0.0418495 0.0427413 0.0436691 0.0446333 0.0456344 0.0466726 0.0477484 0.0488622 0.0500143 0.0512051 0.052435 0.0537045 0.055014 0.0563638 0.0577545 0.0591863 0.0606598 0.0621755 0.0637337 0.0653349 0.0669796 0.0686682 0.0704012 0.0721792 0.0740025 0.0758718 0.0777874 0.0797499 0.0817598 0.0838177 0.0859241 0.0880795 0.0902845 0.0925396 0.0948454 0.0972025 0.0961674 0.0951993 0.0942991 0.0934675 0.0927053 0.0920132 0.0913923 0.0908431 0.0903667 0.0899638 0.0896353 0.0893822 0.0892053 0.0891055 0.0890837 0.089141 0.0892782 0.0894963 0.0897964 0.0901794 0.0906463 0.0911983 0.0918362 0.0925613 0.0933746 0.0942772 0.0952703 0.096355 0.0975324 0.0988038 0.10017 0.101633 0.103194 0.104853 0.106613 0.108474 0.110438 0.112507 0.114681 0.116962 0.119351 0.121851 0.124461 0.127185 0.130023 0.132978 0.13605 0.139241 0.142553 0.145988 0.144627 0.143309 0.142037 0.14081 0.139629 0.138495 0.137408 0.13637 0.13538 0.13444 0.13355 0.132711 0.131924 0.131189 0.130508 0.129881 0.129309 0.128792 0.128333 0.127931 0.127587 0.127302 0.127078 0.126916 0.126815 0.126777 0.126804 0.126896 0.127054 0.12728 0.127574 0.127938 0.128372 0.128879 0.129458 0.130112 0.130842 0.131648 0.132533 0.133497 0.134542 0.13567 0.136881 0.138177 0.139561 0.141033 0.142594 0.144247 0.145994 0.147835 0.146471 0.145099 0.143717 0.142325 0.140924 0.139512 0.138091 0.13666 0.135218 0.133766 0.132302 0.130828 0.129342 0.127845 0.126336 0.124816 0.123283 0.121737 0.120179 0.118608 0.117023 0.115425 0.113814 0.112188 0.110547 0.108892 0.107222 0.105537 0.103836 0.102118 0.100384 0.098634 0.0968662 0.0950809 0.0932776 0.0914558 0.0896152 0.0877553 0.0858757 0.0839757 0.0820551 0.0801132 0.0781495 0.0761636 0.0741547 0.0721224 0.0700661 0.067985 0.0658787 0.0637464 0.0345133 0.0348784 0.0352749 0.0357031 0.0361633 0.0366558 0.0371809 0.0377389 0.0383302 0.038955 0.0396137 0.0403067 0.0410343 0.0417968 0.0425946 0.043428 0.0442973 0.0452031 0.0461455 0.0471251 0.0481421 0.0491969 0.05029 0.0514218 0.0525926 0.0538028 0.0550528 0.0563432 0.0576742 0.0590463 0.06046 0.0619157 0.0634138 0.0649548 0.0665391 0.0681673 0.0698397 0.0715569 0.0733193 0.0751275 0.076982 0.0788832 0.0808316 0.0828279 0.0848724 0.0869659 0.0891087 0.0913015 0.0935448 0.0958392 0.0981853 0.0971337 0.0961487 0.095231 0.0943814 0.0936006 0.0928895 0.0922489 0.0916796 0.0911824 0.0907582 0.0904079 0.0901323 0.0899323 0.0898089 0.0897629 0.0897953 0.0899071 0.0900992 0.0903725 0.0907282 0.0911671 0.0916904 0.092299 0.0929942 0.0937768 0.0946481 0.0956091 0.096661 0.097805 0.0990423 0.100374 0.101801 0.103325 0.104948 0.10667 0.108492 0.110417 0.112445 0.114578 0.116817 0.119163 0.121619 0.124185 0.126864 0.129656 0.132563 0.135587 0.138729 0.141992 0.145376 0.144014 0.142695 0.14142 0.14019 0.139006 0.137867 0.136775 0.13573 0.134733 0.133785 0.132886 0.132038 0.13124 0.130494 0.1298 0.12916 0.128574 0.128042 0.127566 0.127147 0.126785 0.126482 0.126237 0.126053 0.12593 0.12587 0.125872 0.125938 0.12607 0.126267 0.126533 0.126866 0.127269 0.127743 0.128288 0.128907 0.1296 0.130369 0.131214 0.132138 0.133141 0.134225 0.135392 0.136642 0.137978 0.139401 0.140911 0.142512 0.144205 0.145991 0.144633 0.143264 0.141886 0.140497 0.139097 0.137687 0.136266 0.134833 0.133389 0.131933 0.130465 0.128985 0.127492 0.125987 0.124469 0.122938 0.121393 0.119834 0.118262 0.116675 0.115074 0.113457 0.111826 0.110179 0.108516 0.106836 0.10514 0.103428 0.101697 0.0999496 0.0981836 0.0963991 0.0945956 0.0927727 0.09093 0.089067 0.0871832 0.0852782 0.0833513 0.0814021 0.0794301 0.0774347 0.0754152 0.0733712 0.071302 0.0692069 0.0670852 0.0649364 0.0627597 0.0605544 0.0364305 0.0367693 0.0371397 0.037542 0.0379765 0.0384436 0.0389435 0.0394767 0.0400433 0.0406437 0.0412783 0.0419474 0.0426514 0.0433906 0.0441653 0.0449759 0.0458227 0.0467062 0.0476267 0.0485846 0.0495802 0.050614 0.0516863 0.0527975 0.0539481 0.0551384 0.0563689 0.0576399 0.0589519 0.0603054 0.0617007 0.0631384 0.0646188 0.0661424 0.0677097 0.0693212 0.0709772 0.0726784 0.0744252 0.0762181 0.0780575 0.0799441 0.0818783 0.0838607 0.0858917 0.087972 0.0901021 0.0922825 0.0945138 0.0967966 0.0991315 0.0980637 0.0970621 0.0961272 0.0952598 0.0944608 0.0937309 0.0930709 0.0924817 0.0919641 0.0915189 0.091147 0.0908493 0.0906266 0.0904798 0.0904099 0.0904178 0.0905044 0.0906707 0.0909177 0.0912463 0.0916576 0.0921526 0.0927323 0.0933977 0.0941501 0.0949903 0.0959197 0.0969392 0.0980501 0.0992535 0.100551 0.101943 0.103431 0.105016 0.106701 0.108485 0.11037 0.112358 0.11445 0.116648 0.118952 0.121365 0.123887 0.126521 0.129267 0.132127 0.135104 0.138197 0.14141 0.144744 0.143381 0.142062 0.140785 0.139553 0.138365 0.137222 0.136125 0.135074 0.134071 0.133115 0.132208 0.13135 0.130543 0.129786 0.12908 0.128427 0.127827 0.127281 0.126789 0.126353 0.125974 0.125652 0.125388 0.125183 0.125038 0.124954 0.124933 0.124974 0.12508 0.12525 0.125487 0.12579 0.126162 0.126604 0.127116 0.1277 0.128358 0.129089 0.129896 0.13078 0.131742 0.132783 0.133906 0.135111 0.136399 0.137773 0.139234 0.140783 0.142423 0.144154 0.142802 0.141439 0.140065 0.138679 0.137282 0.135873 0.134452 0.133019 0.131573 0.130114 0.128642 0.127157 0.125658 0.124146 0.122619 0.121078 0.119522 0.117952 0.116366 0.114764 0.113146 0.111512 0.109862 0.108194 0.10651 0.104807 0.103086 0.101347 0.0995888 0.0978113 0.096014 0.0941964 0.0923582 0.0904988 0.0886177 0.0867144 0.0847885 0.0828393 0.0808663 0.0788689 0.0768466 0.0747987 0.0727247 0.0706237 0.0684952 0.0663385 0.0641529 0.0619375 0.0596917 0.0574146 0.0383195 0.0386317 0.0389758 0.0393521 0.0397608 0.0402024 0.040677 0.0411851 0.0417269 0.0423028 0.0429131 0.0435582 0.0442384 0.0449541 0.0457056 0.0464933 0.0473175 0.0481786 0.0490769 0.050013 0.0509871 0.0519996 0.0530509 0.0541415 0.0552717 0.0564419 0.0576526 0.0589042 0.0601971 0.0615317 0.0629085 0.064328 0.0657905 0.0672966 0.0688467 0.0704412 0.0720808 0.0737658 0.0754967 0.077274 0.0790984 0.0809701 0.0828899 0.0848582 0.0868756 0.0889425 0.0910596 0.0932275 0.0954466 0.0977176 0.100041 0.0989575 0.0979394 0.0969876 0.0961028 0.0952858 0.0945374 0.0938584 0.0932496 0.0927119 0.092246 0.0918528 0.0915332 0.0912881 0.0911183 0.0910248 0.0910085 0.0910702 0.0912111 0.091432 0.0917339 0.0921179 0.0925849 0.0931359 0.0937721 0.0944944 0.095304 0.096202 0.0971895 0.0982676 0.0994376 0.1007 0.102058 0.10351 0.105059 0.106706 0.108452 0.110299 0.112248 0.114299 0.116456 0.118718 0.121088 0.123566 0.126155 0.128856 0.13167 0.134599 0.137645 0.140809 0.144093 0.14273 0.14141 0.140132 0.138897 0.137706 0.13656 0.135458 0.134402 0.133393 0.13243 0.131515 0.130649 0.129831 0.129064 0.128347 0.127681 0.127068 0.126508 0.126001 0.125549 0.125152 0.124812 0.124529 0.124304 0.124138 0.124032 0.123987 0.124004 0.124084 0.124227 0.124436 0.124711 0.125053 0.125463 0.125942 0.126492 0.127114 0.127809 0.128578 0.129423 0.130344 0.131343 0.132422 0.133582 0.134825 0.136151 0.137562 0.139061 0.140647 0.142324 0.140979 0.139622 0.138253 0.136872 0.135478 0.134071 0.132651 0.131217 0.12977 0.128309 0.126834 0.125345 0.123841 0.122322 0.120787 0.119237 0.117671 0.116089 0.11449 0.112875 0.111242 0.109591 0.107922 0.106235 0.10453 0.102804 0.10106 0.0992949 0.0975097 0.0957034 0.0938757 0.0920261 0.090154 0.088259 0.0863405 0.084398 0.0824309 0.0804387 0.0784206 0.0763762 0.0743047 0.0722054 0.0700778 0.0679211 0.0657346 0.0635175 0.061269 0.0589883 0.0566746 0.054327 0.04018 0.0404656 0.0407833 0.0411334 0.0415162 0.0419321 0.0423813 0.0428641 0.043381 0.0439322 0.0445182 0.0451391 0.0457954 0.0464874 0.0472156 0.0479801 0.0487815 0.04962 0.0504962 0.0514102 0.0523626 0.0533537 0.0543839 0.0554537 0.0565633 0.0577133 0.0589041 0.0601361 0.0614096 0.0627253 0.0640834 0.0654845 0.066929 0.0684173 0.06995 0.0715275 0.0731504 0.074819 0.0765339 0.0782955 0.0801045 0.0819613 0.0838665 0.0858205 0.087824 0.0898774 0.0919814 0.0941365 0.0963432 0.0986022 0.100914 0.0998149 0.0987807 0.0978123 0.0969103 0.0960757 0.0953091 0.0946113 0.0939832 0.0934256 0.0929393 0.0925251 0.092184 0.0919168 0.0917243 0.0916075 0.0915672 0.0916045 0.0917203 0.0919154 0.092191 0.0925479 0.0929872 0.0935099 0.0941171 0.0948098 0.0955891 0.0964561 0.0974119 0.0984576 0.0995944 0.100823 0.102146 0.103563 0.105076 0.106686 0.108395 0.110203 0.112113 0.114125 0.11624 0.118461 0.120788 0.123223 0.125768 0.128424 0.131192 0.134074 0.137072 0.140188 0.143422 0.14206 0.14074 0.139461 0.138224 0.137031 0.135881 0.134775 0.133714 0.132699 0.13173 0.130808 0.129933 0.129106 0.128329 0.127601 0.126924 0.126297 0.125723 0.125202 0.124734 0.124321 0.123963 0.123662 0.123417 0.12323 0.123103 0.123035 0.123028 0.123082 0.1232 0.123381 0.123627 0.123939 0.124319 0.124766 0.125283 0.12587 0.126529 0.12726 0.128066 0.128948 0.129906 0.130942 0.132058 0.133254 0.134533 0.135896 0.137344 0.138879 0.140503 0.139165 0.137815 0.136451 0.135074 0.133684 0.13228 0.130861 0.129429 0.127981 0.126519 0.125041 0.123548 0.12204 0.120515 0.118973 0.117415 0.11584 0.114247 0.112636 0.111007 0.10936 0.107693 0.106007 0.104301 0.102575 0.100829 0.0990609 0.0972714 0.0954599 0.0936259 0.0917687 0.089888 0.0879831 0.0860535 0.0840986 0.0821178 0.0801106 0.0780763 0.0760143 0.0739238 0.0718042 0.0696548 0.0674748 0.0652635 0.06302 0.0607437 0.0584336 0.0560888 0.0537085 0.0512917 0.0420123 0.0422711 0.0425622 0.042886 0.0432427 0.0436327 0.0440563 0.0445139 0.0450057 0.0455321 0.0460934 0.04669 0.0473223 0.0479905 0.0486951 0.0494364 0.0502148 0.0510307 0.0518844 0.0527763 0.0537068 0.0546764 0.0556853 0.056734 0.057823 0.0589526 0.0601233 0.0613355 0.0625896 0.063886 0.0652253 0.0666079 0.0680341 0.0695046 0.0710198 0.07258 0.074186 0.075838 0.0775367 0.0792825 0.081076 0.0829176 0.084808 0.0867476 0.088737 0.0907767 0.0928673 0.0950095 0.0972037 0.0994505 0.101751 0.100636 0.099586 0.0986012 0.0976824 0.0968303 0.0960458 0.0953296 0.0946825 0.0941053 0.0935989 0.0931641 0.0928017 0.0925127 0.0922978 0.092158 0.0920941 0.0921072 0.0921982 0.0923679 0.0926174 0.0929476 0.0933596 0.0938544 0.0944329 0.0950963 0.0958456 0.096682 0.0976064 0.09862 0.0997241 0.10092 0.102208 0.10359 0.105067 0.106641 0.108313 0.110083 0.111954 0.113926 0.116001 0.11818 0.120466 0.122858 0.125359 0.12797 0.130693 0.133529 0.136479 0.139546 0.142732 0.141371 0.14005 0.138771 0.137533 0.136338 0.135185 0.134076 0.13301 0.13199 0.131015 0.130085 0.129203 0.128367 0.12758 0.126842 0.126153 0.125515 0.124928 0.124392 0.12391 0.12348 0.123105 0.122785 0.122522 0.122315 0.122166 0.122076 0.122045 0.122075 0.122167 0.122322 0.12254 0.122823 0.123172 0.123588 0.124072 0.124625 0.125248 0.125943 0.126711 0.127553 0.12847 0.129464 0.130537 0.131688 0.132921 0.134235 0.135634 0.137118 0.138688 0.137359 0.136016 0.134658 0.133287 0.131901 0.1305 0.129084 0.127653 0.126206 0.124743 0.123264 0.121768 0.120255 0.118725 0.117177 0.115611 0.114027 0.112425 0.110803 0.109161 0.1075 0.105818 0.104116 0.102392 0.100647 0.0988797 0.0970897 0.0952765 0.0934397 0.0915787 0.0896931 0.0877821 0.0858453 0.0838821 0.0818918 0.0798739 0.0778276 0.0757523 0.0736473 0.0715118 0.0693452 0.0671467 0.0649155 0.0626507 0.0603515 0.0580171 0.0556466 0.053239 0.0507933 0.0483085 0.0438161 0.044048 0.0443124 0.0446098 0.0449403 0.0453043 0.0457022 0.0461342 0.0466008 0.0471022 0.0476389 0.048211 0.0488191 0.0494634 0.0501443 0.0508622 0.0516175 0.0524105 0.0532416 0.0541112 0.0550198 0.0559676 0.0569551 0.0579827 0.0590508 0.0601598 0.0613102 0.0625025 0.0637369 0.065014 0.0663343 0.0676981 0.069106 0.0705584 0.0720559 0.0735987 0.0751876 0.0768229 0.0785052 0.080235 0.0820127 0.083839 0.0857144 0.0876394 0.0896145 0.0916404 0.0937175 0.0958465 0.0980279 0.100262 0.10255 0.101421 0.100355 0.0993544 0.098419 0.0975499 0.0967477 0.0960133 0.0953475 0.0947511 0.0942249 0.0937697 0.0933864 0.0930758 0.0928388 0.0926763 0.0925892 0.0925784 0.0926449 0.0927895 0.0930132 0.0933171 0.0937021 0.0941692 0.0947195 0.0953539 0.0960736 0.0968796 0.097773 0.0987549 0.0998265 0.100989 0.102243 0.103591 0.105033 0.106571 0.108205 0.109938 0.11177 0.113703 0.115738 0.117877 0.12012 0.12247 0.124928 0.127495 0.130172 0.132962 0.135866 0.138885 0.142022 0.140662 0.139343 0.138063 0.136825 0.135627 0.134472 0.13336 0.13229 0.131265 0.130284 0.129348 0.128458 0.127615 0.126819 0.126071 0.125371 0.124721 0.124121 0.123572 0.123074 0.122629 0.122238 0.121901 0.121618 0.121392 0.121222 0.12111 0.121057 0.121063 0.12113 0.121258 0.121449 0.121703 0.122022 0.122407 0.122859 0.123378 0.123967 0.124626 0.125357 0.12616 0.127037 0.12799 0.129019 0.130126 0.131313 0.13258 0.13393 0.135363 0.136882 0.135561 0.134226 0.132875 0.13151 0.130129 0.128732 0.127319 0.12589 0.124444 0.122981 0.1215 0.120002 0.118486 0.116952 0.115399 0.113826 0.112234 0.110623 0.10899 0.107337 0.105663 0.103967 0.102249 0.100508 0.0987448 0.0969575 0.0951461 0.0933101 0.0914489 0.089562 0.0876487 0.0857085 0.0837408 0.081745 0.0797203 0.0776661 0.0755818 0.0734665 0.0713196 0.0691403 0.0669278 0.0646813 0.0623999 0.0600828 0.0577291 0.0553378 0.0529081 0.0504388 0.047929 0.0453776 0.0455917 0.0457965 0.0460341 0.0463048 0.0466089 0.0469468 0.0473189 0.0477253 0.0481665 0.0486428 0.0491545 0.0497021 0.0502858 0.050906 0.0515632 0.0522575 0.0529895 0.0537595 0.0545679 0.055415 0.0563014 0.0572273 0.0581932 0.0591995 0.0602466 0.0613349 0.0624649 0.063637 0.0648517 0.0661093 0.0674103 0.0687553 0.0701447 0.0715788 0.0730583 0.0745836 0.0761552 0.0777737 0.0794394 0.0811529 0.0829148 0.0847256 0.0865858 0.088496 0.0904566 0.0924684 0.0945318 0.0966475 0.0988159 0.101038 0.103314 0.102169 0.101089 0.100072 0.0991202 0.0982342 0.0974147 0.0966624 0.0959782 0.0953628 0.0948171 0.0943418 0.0939379 0.0936061 0.0933473 0.0931625 0.0930524 0.0930181 0.0930603 0.0931802 0.0933785 0.0936564 0.0940147 0.0944545 0.0949767 0.0955825 0.0962729 0.0970489 0.0979117 0.0988622 0.0999018 0.101031 0.102252 0.103566 0.104973 0.106475 0.108073 0.109768 0.111562 0.113456 0.115452 0.11755 0.119752 0.12206 0.124475 0.126998 0.129631 0.132375 0.135233 0.138204 0.141293 0.139935 0.138616 0.137337 0.136098 0.1349 0.133743 0.132627 0.131554 0.130525 0.129538 0.128597 0.1277 0.126849 0.126044 0.125286 0.124576 0.123915 0.123303 0.12274 0.122229 0.121769 0.121361 0.121007 0.120706 0.120461 0.120271 0.120138 0.120062 0.120045 0.120087 0.12019 0.120354 0.12058 0.12087 0.121225 0.121645 0.122131 0.122686 0.123309 0.124003 0.124768 0.125606 0.126518 0.127505 0.128568 0.12971 0.13093 0.132232 0.133615 0.135083 0.133771 0.132444 0.131101 0.129743 0.128367 0.126975 0.125566 0.124139 0.122695 0.121233 0.119752 0.118253 0.116734 0.115196 0.113638 0.11206 0.110461 0.108841 0.107199 0.105535 0.103849 0.102139 0.100406 0.0986496 0.0968683 0.095062 0.0932302 0.0913722 0.0894875 0.0875756 0.0856357 0.0836672 0.0816696 0.079642 0.077584 0.0754946 0.0733732 0.071219 0.0690313 0.0668092 0.0645518 0.0622585 0.0599281 0.0575598 0.0551527 0.0527058 0.050218 0.0476884 0.0451157 0.0424989 0.0473388 0.0475164 0.047727 0.047971 0.0482487 0.0485603 0.0489063 0.049287 0.0497027 0.0501537 0.0506405 0.0511633 0.0517225 0.0523185 0.0529516 0.0536223 0.0543308 0.0550776 0.0558631 0.0566877 0.0575517 0.0584556 0.0593997 0.0603845 0.0614104 0.0624779 0.0635873 0.0647391 0.0659338 0.0671717 0.0684535 0.0697794 0.07115 0.0725658 0.0740272 0.0755347 0.0770889 0.0786903 0.0803392 0.0820364 0.0837822 0.0855773 0.0874221 0.0893173 0.0912633 0.0932608 0.0953104 0.0974125 0.0995678 0.101777 0.10404 0.102882 0.101786 0.100754 0.0997859 0.0988834 0.0980468 0.097277 0.0965747 0.0959406 0.0953756 0.0948806 0.0944563 0.0941036 0.0938234 0.0936165 0.0934838 0.0934261 0.0934446 0.0935399 0.0937132 0.0939654 0.0942973 0.0947101 0.0952048 0.0957823 0.0964437 0.09719 0.0980225 0.098942 0.0999499 0.101047 0.102235 0.103514 0.104887 0.106353 0.107915 0.109574 0.11133 0.113186 0.115142 0.1172 0.119362 0.121628 0.124 0.126479 0.129068 0.131767 0.134579 0.137504 0.140544 0.139188 0.137871 0.136593 0.135354 0.134155 0.132996 0.131878 0.130802 0.129769 0.128778 0.12783 0.126927 0.126069 0.125256 0.124489 0.123769 0.123097 0.122473 0.121898 0.121373 0.120898 0.120475 0.120104 0.119786 0.119522 0.119313 0.119159 0.119061 0.119021 0.11904 0.119117 0.119255 0.119454 0.119715 0.12004 0.120429 0.120883 0.121404 0.121993 0.122651 0.123378 0.124177 0.125049 0.125994 0.127014 0.128111 0.129286 0.13054 0.131875 0.133291 0.13199 0.130672 0.129337 0.127986 0.126617 0.12523 0.123825 0.122402 0.12096 0.119499 0.118019 0.116519 0.114999 0.113458 0.111896 0.110312 0.108707 0.107079 0.105428 0.103754 0.102057 0.100335 0.0985878 0.0968157 0.0950178 0.0931933 0.0913419 0.0894629 0.0875556 0.0856195 0.0836539 0.0816582 0.0796315 0.0775733 0.0754828 0.0733592 0.0712019 0.0690098 0.0667823 0.0645185 0.0622174 0.0598783 0.0575 0.0550817 0.0526224 0.050121 0.0475764 0.0449876 0.0423533 0.0396724 0.0490577 0.0492079 0.0493914 0.0496085 0.0498595 0.0501448 0.0504646 0.0508194 0.0512094 0.051635 0.0520966 0.0525945 0.0531291 0.0537007 0.0543097 0.0549565 0.0556414 0.0563649 0.0571274 0.0579292 0.0587707 0.0596524 0.0605746 0.0615378 0.0625424 0.0635888 0.0646774 0.0658088 0.0669833 0.0682014 0.0694636 0.0707703 0.072122 0.0735192 0.0749624 0.076452 0.0779886 0.0795727 0.0812047 0.0828853 0.0846149 0.0863941 0.0882234 0.0901034 0.0920346 0.0940176 0.0960531 0.0981415 0.100283 0.10248 0.104731 0.103558 0.102447 0.1014 0.100416 0.0994974 0.0986441 0.097857 0.0971368 0.0964844 0.0959005 0.095386 0.0949417 0.0945684 0.094267 0.0940383 0.0938832 0.0938027 0.0937976 0.0938688 0.0940173 0.0942441 0.09455 0.0949362 0.0954035 0.0959531 0.0965858 0.0973029 0.0981054 0.0989943 0.0999707 0.101036 0.102191 0.103437 0.104775 0.106207 0.107733 0.109355 0.111074 0.112891 0.114809 0.116827 0.118948 0.121173 0.123503 0.12594 0.128484 0.131139 0.133904 0.136783 0.139776 0.138423 0.137108 0.13583 0.134592 0.133392 0.132232 0.131113 0.130034 0.128997 0.128002 0.127049 0.12614 0.125275 0.124454 0.123679 0.12295 0.122267 0.121632 0.121045 0.120507 0.120018 0.11958 0.119193 0.118858 0.118576 0.118347 0.118173 0.118055 0.117992 0.117987 0.11804 0.118152 0.118324 0.118558 0.118853 0.119212 0.119634 0.120122 0.120677 0.121299 0.12199 0.122751 0.123582 0.124487 0.125465 0.126518 0.127647 0.128854 0.130141 0.131508 0.130217 0.128908 0.127583 0.126239 0.124877 0.123496 0.122096 0.120678 0.119239 0.11778 0.116301 0.114801 0.113279 0.111736 0.110171 0.108583 0.106972 0.105337 0.103678 0.101995 0.100287 0.0985534 0.0967935 0.0950069 0.0931931 0.0913514 0.0894813 0.0875821 0.0856532 0.0836939 0.0817035 0.0796814 0.0776267 0.0755388 0.0734169 0.0712601 0.0690677 0.0668389 0.0645727 0.0622682 0.0599245 0.0575407 0.0551157 0.0526486 0.0501382 0.0475835 0.0449833 0.0423365 0.0396419 0.0368981 0.0507481 0.0508709 0.0510271 0.0512172 0.0514414 0.0517001 0.0519937 0.0523224 0.0526866 0.0530867 0.0535229 0.0539958 0.0545056 0.0550526 0.0556374 0.0562602 0.0569214 0.0576214 0.0583607 0.0591395 0.0599584 0.0608177 0.0617178 0.0626592 0.0636423 0.0646675 0.0657353 0.066846 0.0680002 0.0691984 0.0704409 0.0717282 0.0730608 0.0744393 0.075864 0.0773355 0.0788544 0.080421 0.0820359 0.0836997 0.0854129 0.087176 0.0889896 0.0908542 0.0927704 0.0947388 0.09676 0.0988345 0.100963 0.103146 0.105384 0.104197 0.103072 0.10201 0.101011 0.100076 0.0992065 0.0984023 0.0976646 0.0969941 0.0963916 0.095858 0.0953939 0.0950003 0.0946781 0.0944279 0.0942509 0.0941477 0.0941194 0.0941668 0.0942909 0.0944926 0.0947728 0.0951326 0.095573 0.0960949 0.0966994 0.0973875 0.0981604 0.0990189 0.0999644 0.100998 0.10212 0.103333 0.104637 0.106034 0.107525 0.109111 0.110793 0.112573 0.114452 0.116431 0.118512 0.120696 0.122984 0.125378 0.127879 0.13049 0.13321 0.136042 0.138988 0.137638 0.136325 0.13505 0.133812 0.132612 0.131452 0.130331 0.12925 0.12821 0.127211 0.126254 0.125339 0.124468 0.12364 0.122856 0.122118 0.121426 0.12078 0.120181 0.11963 0.119128 0.118675 0.118273 0.117921 0.117622 0.117374 0.117181 0.117042 0.116957 0.116929 0.116959 0.117046 0.117191 0.117397 0.117664 0.117993 0.118385 0.11884 0.119361 0.119948 0.120603 0.121326 0.122119 0.122983 0.123919 0.124929 0.126014 0.127175 0.128414 0.129731 0.128452 0.127154 0.125837 0.124502 0.123148 0.121774 0.12038 0.118966 0.117531 0.116075 0.114597 0.113098 0.111576 0.110032 0.108464 0.106872 0.105256 0.103616 0.10195 0.100258 0.0985403 0.0967955 0.0950233 0.0932231 0.0913943 0.0895363 0.0876483 0.0857299 0.0837802 0.0817986 0.0797844 0.0777368 0.0756551 0.0735385 0.0713861 0.0691972 0.0669709 0.0647062 0.0624024 0.0600583 0.0576731 0.0552457 0.0527751 0.0502603 0.0477 0.0450932 0.0424387 0.0397351 0.0369814 0.034176 0.0524103 0.0525054 0.0526342 0.0527971 0.0529944 0.0532265 0.0534936 0.0537961 0.0541343 0.0545087 0.0549195 0.0553672 0.055852 0.0563744 0.0569347 0.0575333 0.0581706 0.0588471 0.059563 0.0603187 0.0611148 0.0619516 0.0628295 0.0637489 0.0647104 0.0657142 0.0667609 0.0678508 0.0689846 0.0701625 0.0713851 0.0726529 0.0739663 0.0753258 0.076732 0.0781852 0.0796861 0.0812351 0.0828328 0.0844796 0.0861762 0.0879231 0.0897208 0.0915698 0.0934709 0.0954244 0.0974311 0.0994915 0.101606 0.103776 0.106001 0.104801 0.103661 0.102584 0.10157 0.10062 0.099734 0.0989131 0.0981582 0.0974699 0.0968491 0.0962965 0.0958131 0.0953995 0.0950567 0.0947854 0.0945866 0.0944612 0.09441 0.0944339 0.0945338 0.0947108 0.0949657 0.0952995 0.0957132 0.0962079 0.0967844 0.0974439 0.0981875 0.0990161 0.0999309 0.100933 0.102023 0.103203 0.104474 0.105837 0.107293 0.108843 0.110488 0.112231 0.114072 0.116012 0.118053 0.120196 0.122443 0.124795 0.127253 0.129819 0.132495 0.135282 0.138181 0.136834 0.135524 0.134251 0.133014 0.131815 0.130654 0.129532 0.12845 0.127407 0.126405 0.125443 0.124524 0.123646 0.122812 0.122021 0.121274 0.120572 0.119916 0.119306 0.118743 0.118228 0.117761 0.117344 0.116976 0.11666 0.116395 0.116182 0.116022 0.115917 0.115867 0.115873 0.115935 0.116055 0.116234 0.116473 0.116773 0.117134 0.117558 0.118046 0.118599 0.119218 0.119904 0.120659 0.121483 0.122378 0.123346 0.124386 0.125502 0.126694 0.127963 0.126695 