<?xml version="1.0"?> 
<VTKFile type="StructuredGrid" version="0.1"> 
<StructuredGrid WholeExtent="0 200 0 200 0 0"> 
<Piece Extent="0 200 0 200 0 0"> 
<PointData Scalars="Stress components">
<DataArray type="Float32" Name="sigma_xx" format="ascii" NumberOfComponents="1"> 
-237.396 -235.979 -234.564 -233.15 -231.738 -230.327 -228.919 -227.512 -226.107 -224.703 -223.302 -221.902 -220.504 -219.108 -217.713 -216.321 -214.93 -213.541 -212.154 -210.769 -209.386 -208.005 -206.626 -205.248 -203.873 -202.5 -201.128 -199.759 -198.392 -197.027 -195.663 -194.302 -192.943 -191.587 -190.232 -188.879 -187.529 -186.181 -184.835 -183.491 -182.15 -180.811 -179.474 -178.139 -176.807 -175.477 -174.15 -172.825 -171.502 -170.181 -168.864 -167.548 -166.235 -164.925 -163.617 -162.312 -161.009 -159.709 -158.411 -157.117 -155.824 -154.535 -153.248 -151.964 -150.683 -149.405 -148.129 -146.856 -145.586 -144.319 -143.055 -141.794 -140.536 -139.28 -138.028 -136.779 -135.533 -134.29 -133.05 -131.814 -130.58 -129.35 -128.123 -126.9 -125.679 -124.462 -123.249 -122.039 -120.832 -119.629 -118.429 -117.233 -116.041 -114.852 -113.666 -112.485 -111.307 -110.133 -108.963 -107.796 -106.634 -105.864 -105.087 -104.305 -103.516 -102.721 -101.92 -101.112 -100.297 -99.4763 -98.6487 -97.8143 -96.9732 -96.1252 -95.2703 -94.4084 -93.5394 -92.6632 -91.7799 -90.8892 -89.9911 -89.0856 -88.1726 -87.2519 -86.3235 -85.3873 -84.4433 -83.4912 -82.5312 -81.563 -80.5865 -79.6018 -78.6086 -77.6069 -76.5967 -75.5777 -74.5499 -73.5132 -72.4675 -71.4127 -70.3487 -69.2753 -68.1926 -67.1003 -65.9983 -64.8866 -63.7651 -62.6335 -61.4918 -60.3398 -59.1776 -58.0048 -56.8214 -55.6273 -54.4223 -53.2063 -51.9792 -50.7408 -49.491 -48.2296 -46.9565 -45.6716 -44.3747 -43.0656 -41.7442 -40.4104 -39.0639 -37.7047 -36.3325 -34.9472 -33.5486 -32.1366 -30.7109 -29.2714 -27.8179 -26.3501 -24.8681 -23.3714 -21.86 -20.3336 -18.792 -17.2351 -15.6625 -14.0742 -12.4698 -10.8491 -9.21203 -7.55819 -5.88741 -4.19944 -2.49404 -0.770946 0.970088 2.72932 4.50702 6.30346 8.11891 9.95365 11.808 13.6822 15.5765 -235.018 -233.614 -232.213 -230.813 -229.414 -228.018 -226.623 -225.229 -223.838 -222.448 -221.06 -219.674 -218.29 -216.907 -215.526 -214.147 -212.77 -211.394 -210.021 -208.649 -207.28 -205.912 -204.546 -203.182 -201.82 -200.46 -199.102 -197.746 -196.392 -195.04 -193.69 -192.342 -190.996 -189.653 -188.311 -186.972 -185.634 -184.299 -182.966 -181.636 -180.307 -178.981 -177.657 -176.335 -175.016 -173.699 -172.384 -171.072 -169.762 -168.454 -167.149 -165.846 -164.546 -163.249 -161.953 -160.661 -159.37 -158.083 -156.798 -155.515 -154.236 -152.959 -151.684 -150.413 -149.144 -147.878 -146.614 -145.354 -144.096 -142.841 -141.589 -140.34 -139.094 -137.851 -136.61 -135.373 -134.139 -132.908 -131.68 -130.456 -129.234 -128.016 -126.8 -125.589 -124.38 -123.175 -121.973 -120.774 -119.579 -118.387 -117.199 -116.014 -114.833 -113.656 -112.482 -111.311 -110.145 -108.982 -107.823 -106.667 -105.516 -104.755 -103.988 -103.215 -102.435 -101.649 -100.857 -100.058 -99.2532 -98.4414 -97.623 -96.7979 -95.966 -95.1273 -94.2816 -93.4289 -92.5692 -91.7023 -90.8282 -89.9468 -89.058 -88.1617 -87.2579 -86.3465 -85.4274 -84.5005 -83.5657 -82.623 -81.6722 -80.7133 -79.7462 -78.7707 -77.7869 -76.7945 -75.7935 -74.7838 -73.7654 -72.738 -71.7016 -70.6562 -69.6015 -68.5375 -67.4641 -66.3811 -65.2885 -64.1862 -63.074 -61.9518 -60.8194 -59.6769 -58.524 -57.3606 -56.1866 -55.0019 -53.8063 -52.5997 -51.382 -50.153 -48.9126 -47.6606 -46.397 -45.1215 -43.834 -42.5344 -41.2225 -39.8981 -38.5611 -37.2113 -35.8486 -34.4728 -33.0837 -31.6811 -30.2649 -28.8349 -27.3909 -25.9327 -24.4602 -22.9731 -21.4712 -19.9543 -18.4223 -16.8749 -15.3119 -13.7331 -12.1383 -10.5273 -8.89974 -7.25551 -5.59434 -3.91598 -2.2202 -0.506737 1.22466 2.97425 4.74229 6.52906 8.33484 10.1599 12.0045 13.869 15.7537 -232.641 -231.252 -229.864 -228.478 -227.093 -225.71 -224.329 -222.949 -221.571 -220.195 -218.821 -217.448 -216.077 -214.708 -213.341 -211.975 -210.611 -209.249 -207.889 -206.531 -205.175 -203.82 -202.468 -201.117 -199.768 -198.422 -197.077 -195.734 -194.393 -193.055 -191.718 -190.383 -189.05 -187.72 -186.391 -185.065 -183.741 -182.419 -181.099 -179.781 -178.466 -177.152 -175.841 -174.532 -173.226 -171.922 -170.62 -169.32 -168.023 -166.728 -165.436 -164.145 -162.858 -161.573 -160.29 -159.01 -157.732 -156.457 -155.185 -153.915 -152.647 -151.383 -150.121 -148.861 -147.605 -146.351 -145.1 -143.851 -142.606 -141.363 -140.123 -138.886 -137.652 -136.421 -135.193 -133.967 -132.745 -131.526 -130.31 -129.097 -127.887 -126.681 -125.477 -124.277 -123.08 -121.886 -120.696 -119.509 -118.325 -117.145 -115.968 -114.795 -113.625 -112.459 -111.296 -110.137 -108.982 -107.83 -106.682 -105.538 -104.397 -103.645 -102.887 -102.123 -101.353 -100.577 -99.7936 -99.0042 -98.2083 -97.4058 -96.5967 -95.7808 -94.9582 -94.1287 -93.2924 -92.449 -91.5985 -90.7409 -89.8761 -89.004 -88.1245 -87.2376 -86.3431 -85.441 -84.5312 -83.6137 -82.6882 -81.7548 -80.8134 -79.8638 -78.906 -77.9399 -76.9654 -75.9824 -74.9908 -73.9905 -72.9814 -71.9634 -70.9364 -69.9003 -68.8551 -67.8005 -66.7364 -65.6629 -64.5797 -63.4868 -62.384 -61.2712 -60.1483 -59.0152 -57.8717 -56.7178 -55.5532 -54.3779 -53.1918 -51.9947 -50.7865 -49.5669 -48.336 -47.0936 -45.8394 -44.5734 -43.2955 -42.0053 -40.7029 -39.3881 -38.0606 -36.7204 -35.3672 -34.0009 -32.6214 -31.2284 -29.8218 -28.4013 -26.9669 -25.5183 -24.0554 -22.5778 -21.0856 -19.5783 -18.0559 -16.5182 -14.9648 -13.3957 -11.8105 -10.2092 -8.59131 -6.95676 -5.30528 -3.63662 -1.95054 -0.2468 1.47487 3.21472 4.97302 6.75004 8.54606 10.3613 12.1962 14.0509 15.9258 -230.267 -228.891 -227.517 -226.145 -224.774 -223.404 -222.037 -220.671 -219.306 -217.944 -216.583 -215.224 -213.866 -212.511 -211.157 -209.805 -208.455 -207.106 -205.759 -204.415 -203.072 -201.731 -200.391 -199.054 -197.719 -196.385 -195.054 -193.724 -192.396 -191.071 -189.747 -188.425 -187.106 -185.788 -184.473 -183.16 -181.848 -180.539 -179.232 -177.928 -176.625 -175.325 -174.026 -172.73 -171.437 -170.145 -168.856 -167.569 -166.285 -165.002 -163.723 -162.445 -161.17 -159.898 -158.627 -157.36 -156.095 -154.832 -153.572 -152.314 -151.059 -149.807 -148.557 -147.31 -146.066 -144.824 -143.585 -142.349 -141.116 -139.885 -138.657 -137.432 -136.21 -134.991 -133.775 -132.561 -131.351 -130.144 -128.94 -127.738 -126.54 -125.345 -124.154 -122.965 -121.78 -120.597 -119.419 -118.243 -117.071 -115.902 -114.736 -113.574 -112.416 -111.261 -110.109 -108.962 -107.817 -106.677 -105.54 -104.406 -103.277 -102.534 -101.786 -101.031 -100.27 -99.5029 -98.7292 -97.9491 -97.1625 -96.3694 -95.5695 -94.763 -93.9497 -93.1296 -92.3026 -91.4685 -90.6274 -89.7792 -88.9237 -88.0609 -87.1908 -86.3132 -85.4281 -84.5354 -83.635 -82.7268 -81.8107 -80.8867 -79.9547 -79.0145 -78.0661 -77.1094 -76.1443 -75.1707 -74.1885 -73.1976 -72.198 -71.1894 -70.1719 -69.1452 -68.1094 -67.0642 -66.0097 -64.9456 -63.8719 -62.7884 -61.6951 -60.5918 -59.4784 -58.3547 -57.2208 -56.0763 -54.9213 -53.7555 -52.5789 -51.3914 -50.1926 -48.9827 -47.7613 -46.5284 -45.2838 -44.0274 -42.759 -41.4784 -40.1856 -38.8804 -37.5625 -36.2319 -34.8883 -33.5317 -32.1617 -30.7784 -29.3814 -27.9706 -26.5458 -25.1069 -23.6536 -22.1858 -20.7032 -19.2056 -17.693 -16.1649 -14.6213 -13.0619 -11.4865 -9.89482 -8.28673 -6.66194 -5.02023 -3.36136 -1.68508 0.00886464 1.72072 3.45075 5.19922 6.9664 8.75257 10.558 12.383 14.2278 16.0928 -227.895 -226.533 -225.173 -223.814 -222.457 -221.101 -219.747 -218.394 -217.044 -215.695 -214.347 -213.002 -211.658 -210.316 -208.975 -207.637 -206.3 -204.965 -203.631 -202.3 -200.97 -199.642 -198.316 -196.992 -195.67 -194.35 -193.032 -191.715 -190.401 -189.088 -187.778 -186.469 -185.163 -183.858 -182.556 -181.256 -179.957 -178.661 -177.367 -176.075 -174.785 -173.498 -172.212 -170.929 -169.648 -168.37 -167.093 -165.819 -164.547 -163.278 -162.01 -160.746 -159.483 -158.223 -156.966 -155.71 -154.458 -153.207 -151.96 -150.715 -149.472 -148.232 -146.994 -145.76 -144.527 -143.298 -142.071 -140.847 -139.626 -138.407 -137.191 -135.978 -134.768 -133.561 -132.357 -131.155 -129.957 -128.761 -127.569 -126.379 -125.193 -124.01 -122.83 -121.653 -120.479 -119.308 -118.141 -116.977 -115.816 -114.658 -113.504 -112.353 -111.206 -110.062 -108.922 -107.785 -106.652 -105.522 -104.396 -103.274 -102.156 -101.422 -100.683 -99.9379 -99.1862 -98.4283 -97.6639 -96.8932 -96.116 -95.3321 -94.5417 -93.7446 -92.9406 -92.1299 -91.3122 -90.4875 -89.6558 -88.817 -87.9709 -87.1175 -86.2568 -85.3886 -84.5129 -83.6296 -82.7386 -81.8399 -80.9333 -80.0187 -79.0961 -78.1653 -77.2264 -76.2792 -75.3235 -74.3594 -73.3867 -72.4053 -71.4151 -70.416 -69.4079 -68.3908 -67.3644 -66.3288 -65.2838 -64.2292 -63.165 -62.0911 -61.0073 -59.9135 -58.8097 -57.6956 -56.5712 -55.4363 -54.2908 -53.1347 -51.9676 -50.7896 -49.6005 -48.4002 -47.1884 -45.9651 -44.7301 -43.4833 -42.2246 -40.9537 -39.6705 -38.3749 -37.0667 -35.7458 -34.4119 -33.0649 -31.7047 -30.331 -28.9438 -27.5427 -26.1277 -24.6985 -23.2549 -21.7968 -20.324 -18.8363 -17.3333 -15.8151 -14.2813 -12.7317 -11.1661 -9.58426 -7.986 -6.37106 -4.73921 -3.09021 -1.4238 0.260257 1.96222 3.68234 5.42089 7.17814 8.95436 10.7498 12.5649 14.3997 16.2547 -225.526 -224.177 -222.83 -221.485 -220.141 -218.799 -217.459 -216.12 -214.783 -213.447 -212.114 -210.782 -209.451 -208.122 -206.795 -205.47 -204.147 -202.825 -201.505 -200.187 -198.87 -197.556 -196.243 -194.932 -193.623 -192.316 -191.011 -189.708 -188.407 -187.107 -185.81 -184.514 -183.221 -181.929 -180.64 -179.353 -178.067 -176.784 -175.503 -174.224 -172.947 -171.672 -170.4 -169.129 -167.861 -166.595 -165.331 -164.07 -162.811 -161.554 -160.299 -159.047 -157.797 -156.549 -155.304 -154.061 -152.821 -151.583 -150.348 -149.115 -147.885 -146.657 -145.432 -144.209 -142.989 -141.772 -140.557 -139.345 -138.136 -136.929 -135.726 -134.525 -133.326 -132.131 -130.939 -129.749 -128.562 -127.379 -126.198 -125.02 -123.845 -122.674 -121.505 -120.34 -119.177 -118.018 -116.862 -115.709 -114.56 -113.414 -112.271 -111.132 -109.995 -108.863 -107.734 -106.608 -105.486 -104.367 -103.252 -102.141 -101.033 -100.309 -99.5795 -98.8435 -98.1012 -97.3527 -96.5978 -95.8364 -95.0686 -94.2942 -93.5131 -92.7254 -91.9309 -91.1295 -90.3213 -89.5061 -88.6838 -87.8544 -87.0177 -86.1738 -85.3225 -84.4638 -83.5976 -82.7238 -81.8422 -80.9529 -80.0558 -79.1507 -78.2376 -77.3164 -76.3869 -75.4492 -74.503 -73.5484 -72.5852 -71.6134 -70.6327 -69.6432 -68.6447 -67.6371 -66.6203 -65.5942 -64.5587 -63.5137 -62.4591 -61.3948 -60.3206 -59.2364 -58.1422 -57.0377 -55.9229 -54.7976 -53.6618 -52.5153 -51.3579 -50.1896 -49.0101 -47.8194 -46.6173 -45.4037 -44.1784 -42.9413 -41.6923 -40.4311 -39.1576 -37.8718 -36.5733 -35.2621 -33.938 -32.6008 -31.2503 -29.8864 -28.5089 -27.1177 -25.7124 -24.2931 -22.8593 -21.4111 -19.9481 -18.4702 -16.9771 -15.4687 -13.9448 -12.4051 -10.8494 -9.27747 -7.68913 -6.08412 -4.46221 -2.82315 -1.16671 0.507377 2.19935 3.90948 5.63803 7.38526 9.15145 10.9369 12.7418 14.5666 16.4115 -223.158 -221.824 -220.49 -219.159 -217.829 -216.5 -215.173 -213.848 -212.524 -211.202 -209.882 -208.563 -207.246 -205.931 -204.617 -203.305 -201.995 -200.687 -199.38 -198.075 -196.772 -195.471 -194.172 -192.874 -191.578 -190.284 -188.992 -187.702 -186.414 -185.128 -183.843 -182.561 -181.28 -180.002 -178.725 -177.451 -176.179 -174.908 -173.64 -172.374 -171.11 -169.848 -168.588 -167.33 -166.075 -164.821 -163.57 -162.321 -161.075 -159.831 -158.588 -157.349 -156.111 -154.876 -153.644 -152.413 -151.185 -149.96 -148.737 -147.516 -146.298 -145.083 -143.87 -142.659 -141.451 -140.246 -139.044 -137.844 -136.646 -135.452 -134.26 -133.071 -131.885 -130.701 -129.52 -128.343 -127.168 -125.996 -124.827 -123.661 -122.497 -121.337 -120.18 -119.026 -117.875 -116.728 -115.583 -114.442 -113.304 -112.169 -111.037 -109.909 -108.784 -107.662 -106.544 -105.43 -104.319 -103.211 -102.107 -101.006 -99.9095 -99.1952 -98.4747 -97.7481 -97.0153 -96.2761 -95.5307 -94.7787 -94.0203 -93.2554 -92.4838 -91.7055 -90.9205 -90.1286 -89.3298 -88.5241 -87.7113 -86.8913 -86.0642 -85.2298 -84.388 -83.5388 -82.6821 -81.8177 -80.9457 -80.066 -79.1784 -78.2828 -77.3792 -76.4675 -75.5477 -74.6195 -73.6829 -72.7379 -71.7842 -70.8219 -69.8509 -68.8709 -67.882 -66.884 -65.8769 -64.8604 -63.8345 -62.7992 -61.7542 -60.6995 -59.635 -58.5605 -57.4759 -56.3811 -55.276 -54.1604 -53.0343 -51.8974 -50.7498 -49.5911 -48.4214 -47.2404 -46.0481 -44.8442 -43.6287 -42.4013 -41.1621 -39.9107 -38.647 -37.3709 -36.0823 -34.7809 -33.4665 -32.1392 -30.7985 -29.4445 -28.0769 -26.6955 -25.3001 -23.8906 -22.4668 -21.0284 -19.5754 -18.1074 -16.6243 -15.1258 -13.6118 -12.0821 -10.5364 -8.97445 -7.39611 -5.80111 -4.18922 -2.5602 -0.913801 0.750224 2.43213 4.13218 5.85063 7.58775 9.34382 11.1191 12.9139 14.7285 16.5633 -220.793 -219.472 -218.152 -216.834 -215.518 -214.203 -212.889 -211.578 -210.267 -208.959 -207.652 -206.347 -205.043 -203.741 -202.441 -201.143 -199.846 -198.551 -197.257 -195.966 -194.676 -193.388 -192.102 -190.817 -189.535 -188.254 -186.975 -185.698 -184.423 -183.149 -181.878 -180.609 -179.341 -178.076 -176.812 -175.551 -174.291 -173.034 -171.778 -170.525 -169.273 -168.024 -166.777 -165.532 -164.289 -163.049 -161.81 -160.574 -159.34 -158.108 -156.879 -155.651 -154.426 -153.204 -151.983 -150.766 -149.55 -148.337 -147.126 -145.918 -144.712 -143.509 -142.308 -141.11 -139.914 -138.721 -137.53 -136.342 -135.157 -133.974 -132.794 -131.617 -130.443 -129.271 -128.102 -126.936 -125.773 -124.613 -123.455 -122.301 -121.149 -120.001 -118.855 -117.713 -116.573 -115.437 -114.304 -113.174 -112.047 -110.923 -109.803 -108.686 -107.572 -106.461 -105.354 -104.251 -103.15 -102.054 -100.96 -99.8708 -98.7847 -98.0798 -97.3688 -96.6517 -95.9283 -95.1987 -94.4626 -93.7202 -92.9713 -92.2158 -91.4537 -90.685 -89.9094 -89.1271 -88.3378 -87.5416 -86.7383 -85.9279 -85.1103 -84.2854 -83.4532 -82.6135 -81.7664 -80.9116 -80.0492 -79.179 -78.3009 -77.415 -76.521 -75.6189 -74.7086 -73.79 -72.8631 -71.9277 -70.9837 -70.031 -69.0696 -68.0993 -67.12 -66.1317 -65.1342 -64.1274 -63.1112 -62.0856 -61.0503 -60.0053 -58.9504 -57.8857 -56.8108 -55.7257 -54.6303 -53.5245 -52.4082 -51.2811 -50.1432 -48.9943 -47.8344 -46.6632 -45.4807 -44.2866 -43.0809 -41.8634 -40.6339 -39.3924 -38.1386 -36.8723 -35.5935 -34.302 -32.9976 -31.6801 -30.3494 -29.0053 -27.6476 -26.2761 -24.8907 -23.4912 -22.0773 -20.649 -19.2059 -17.7479 -16.2748 -14.7864 -13.2824 -11.7627 -10.2271 -8.6752 -7.10694 -5.52204 -3.92025 -2.30135 -0.665082 0.9888 2.66055 4.35043 6.05869 7.78562 9.53148 11.2966 13.0811 14.8855 16.7099 -218.43 -217.123 -215.817 -214.512 -213.209 -211.908 -210.608 -209.309 -208.013 -206.718 -205.424 -204.132 -202.842 -201.554 -200.267 -198.982 -197.698 -196.416 -195.136 -193.858 -192.581 -191.306 -190.033 -188.762 -187.493 -186.225 -184.959 -183.695 -182.433 -181.173 -179.914 -178.658 -177.403 -176.151 -174.9 -173.651 -172.405 -171.16 -169.917 -168.677 -167.438 -166.202 -164.967 -163.735 -162.505 -161.277 -160.051 -158.827 -157.606 -156.387 -155.169 -153.955 -152.742 -151.532 -150.324 -149.118 -147.915 -146.714 -145.516 -144.32 -143.126 -141.935 -140.746 -139.56 -138.376 -137.195 -136.017 -134.841 -133.668 -132.497 -131.329 -130.163 -129.001 -127.841 -126.684 -125.53 -124.378 -123.229 -122.083 -120.941 -119.801 -118.663 -117.529 -116.398 -115.27 -114.145 -113.023 -111.905 -110.789 -109.677 -108.567 -107.461 -106.359 -105.259 -104.163 -103.07 -101.981 -100.895 -99.8129 -98.734 -97.6587 -96.9633 -96.2619 -95.5542 -94.8404 -94.1202 -93.3937 -92.6608 -91.9214 -91.1755 -90.4229 -89.6637 -88.8977 -88.1249 -87.3452 -86.5586 -85.7648 -84.964 -84.156 -83.3407 -82.5181 -81.688 -80.8505 -80.0053 -79.1525 -78.2919 -77.4235 -76.5472 -75.6629 -74.7704 -73.8698 -72.9609 -72.0436 -71.1178 -70.1835 -69.2406 -68.2888 -67.3282 -66.3587 -65.3801 -64.3923 -63.3952 -62.3888 -61.3729 -60.3473 -59.3121 -58.267 -57.212 -56.1469 -55.0717 -53.9861 -52.8901 -51.7835 -50.6662 -49.5382 -48.3992 -47.2491 -46.0877 -44.9151 -43.7309 -42.535 -41.3274 -40.1079 -38.8762 -37.6323 -36.3761 -35.1072 -33.8256 -32.5312 -31.2237 -29.9029 -28.5688 -27.2211 -25.8597 -24.4843 -23.0948 -21.6909 -20.2726 -18.8396 -17.3917 -15.9287 -14.4504 -12.9565 -11.4469 -9.92143 -8.37973 -6.82163 -5.2469 -3.65531 -2.0466 -0.420551 1.2231 2.88461 4.56423 6.26222 7.97887 9.71443 11.4692 13.2434 15.0374 16.8515 -216.069 -214.775 -213.483 -212.192 -210.902 -209.614 -208.328 -207.043 -205.76 -204.478 -203.198 -201.92 -200.643 -199.368 -198.094 -196.822 -195.552 -194.284 -193.017 -191.752 -190.488 -189.226 -187.967 -186.708 -185.452 -184.197 -182.945 -181.694 -180.445 -179.197 -177.952 -176.708 -175.467 -174.227 -172.989 -171.754 -170.52 -169.288 -168.058 -166.83 -165.604 -164.38 -163.159 -161.939 -160.721 -159.506 -158.293 -157.082 -155.873 -154.666 -153.461 -152.259 -151.059 -149.861 -148.665 -147.472 -146.281 -145.092 -143.906 -142.722 -141.541 -140.362 -139.185 -138.011 -136.839 -135.67 -134.504 -133.34 -132.178 -131.02 -129.863 -128.71 -127.559 -126.411 -125.265 -124.123 -122.983 -121.846 -120.712 -119.58 -118.452 -117.326 -116.203 -115.084 -113.967 -112.853 -111.743 -110.635 -109.531 -108.429 -107.331 -106.236 -105.145 -104.056 -102.971 -101.889 -100.811 -99.7359 -98.6643 -97.5962 -96.5316 -95.8457 -95.1538 -94.4557 -93.7514 -93.0408 -92.3239 -91.6005 -90.8707 -90.1344 -89.3914 -88.6418 -87.8854 -87.1222 -86.3521 -85.575 -84.7909 -83.9997 -83.2014 -82.3957 -81.5827 -80.7623 -79.9344 -79.0989 -78.2558 -77.4049 -76.5461 -75.6795 -74.8049 -73.9221 -73.0312 -72.132 -71.2244 -70.3084 -69.3838 -68.4506 -67.5086 -66.5578 -65.598 -64.6291 -63.6511 -62.6639 -61.6672 -60.6611 -59.6454 -58.62 -57.5847 -56.5395 -55.4843 -54.4188 -53.3431 -52.257 -51.1603 -50.0529 -48.9347 -47.8056 -46.6654 -45.514 -44.3513 -43.177 -41.9912 -40.7935 -39.5839 -38.3622 -37.1283 -35.8821 -34.6232 -33.3517 -32.0672 -30.7698 -29.4591 -28.135 -26.7974 -25.446 -24.0807 -22.7013 -21.3076 -19.8994 -18.4766 -17.0388 -15.586 -14.1178 -12.6342 -11.1348 -9.61949 -8.08802 -6.54017 -4.9757 -3.39438 -1.79596 -0.180206 1.45313 3.10431 4.77359 6.46122 8.16749 9.89266 11.637 13.4008 15.1844 16.9881 -213.711 -212.43 -211.151 -209.874 -208.598 -207.323 -206.051 -204.779 -203.509 -202.241 -200.974 -199.709 -198.446 -197.184 -195.924 -194.665 -193.408 -192.153 -190.899 -189.647 -188.397 -187.148 -185.901 -184.656 -183.413 -182.172 -180.932 -179.694 -178.458 -177.223 -175.991 -174.76 -173.532 -172.305 -171.08 -169.857 -168.636 -167.417 -166.2 -164.984 -163.771 -162.56 -161.351 -160.144 -158.939 -157.736 -156.535 -155.337 -154.14 -152.946 -151.754 -150.564 -149.376 -148.19 -147.007 -145.826 -144.647 -143.471 -142.297 -141.125 -139.956 -138.789 -137.624 -136.462 -135.303 -134.146 -132.991 -131.839 -130.689 -129.542 -128.398 -127.256 -126.117 -124.981 -123.847 -122.716 -121.588 -120.462 -119.339 -118.219 -117.102 -115.988 -114.877 -113.769 -112.663 -111.561 -110.461 -109.365 -108.272 -107.182 -106.095 -105.011 -103.93 -102.853 -101.778 -100.707 -99.6398 -98.5755 -97.5147 -96.4572 -95.4033 -94.727 -94.0446 -93.3561 -92.6614 -91.9605 -91.2531 -90.5394 -89.8192 -89.0925 -88.3591 -87.6191 -86.8724 -86.1188 -85.3584 -84.591 -83.8166 -83.035 -82.2463 -81.4504 -80.6471 -79.8364 -79.0182 -78.1924 -77.3589 -76.5178 -75.6688 -74.8119 -73.947 -73.074 -72.1928 -71.3034 -70.4056 -69.4993 -68.5846 -67.6611 -66.7289 -65.7879 -64.8379 -63.8789 -62.9107 -61.9333 -60.9465 -59.9502 -58.9444 -57.9288 -56.9035 -55.8682 -54.8228 -53.7673 -52.7015 -51.6253 -50.5385 -49.4411 -48.3329 -47.2137 -46.0835 -44.9421 -43.7893 -42.6251 -41.4492 -40.2616 -39.062 -37.8504 -36.6266 -35.3903 -34.1416 -32.8801 -31.6058 -30.3184 -29.0179 -27.7039 -26.3764 -25.0352 -23.6801 -22.3109 -20.9274 -19.5294 -18.1167 -16.6892 -15.2466 -13.7887 -12.3153 -10.8263 -9.32125 -7.80009 -6.26256 -4.70843 -3.13746 -1.54942 0.0559521 1.67889 3.31965 4.9785 6.65569 8.3515 10.0662 11.8 13.5534 15.3264 17.1195 -211.354 -210.087 -208.822 -207.558 -206.296 -205.034 -203.775 -202.517 -201.261 -200.006 -198.752 -197.501 -196.25 -195.002 -193.755 -192.509 -191.266 -190.023 -188.783 -187.544 -186.307 -185.072 -183.838 -182.606 -181.376 -180.147 -178.92 -177.695 -176.472 -175.251 -174.031 -172.814 -171.598 -170.384 -169.172 -167.961 -166.753 -165.547 -164.342 -163.14 -161.939 -160.741 -159.544 -158.35 -157.157 -155.967 -154.779 -153.593 -152.409 -151.227 -150.047 -148.869 -147.694 -146.52 -145.349 -144.181 -143.014 -141.85 -140.688 -139.529 -138.371 -137.216 -136.064 -134.914 -133.766 -132.621 -131.478 -130.338 -129.2 -128.065 -126.933 -125.803 -124.675 -123.55 -122.428 -121.309 -120.192 -119.078 -117.967 -116.858 -115.753 -114.65 -113.55 -112.453 -111.359 -110.268 -109.18 -108.094 -107.012 -105.933 -104.857 -103.784 -102.714 -101.648 -100.585 -99.5244 -98.4676 -97.4141 -96.364 -95.3172 -94.2738 -93.6071 -92.9344 -92.2556 -91.5705 -90.8791 -90.1815 -89.4774 -88.7669 -88.0498 -87.3261 -86.5958 -85.8588 -85.1149 -84.3641 -83.6065 -82.8417 -82.0699 -81.2909 -80.5047 -79.7112 -78.9102 -78.1017 -77.2857 -76.462 -75.6306 -74.7914 -73.9443 -73.0892 -72.226 -71.3547 -70.475 -69.5871 -68.6907 -67.7857 -66.8721 -65.9498 -65.0186 -64.0785 -63.1294 -62.1711 -61.2036 -60.2267 -59.2403 -58.2444 -57.2388 -56.2233 -55.198 -54.1626 -53.1171 -52.0612 -50.995 -49.9182 -48.8308 -47.7326 -46.6235 -45.5033 -44.3719 -43.2292 -42.0751 -40.9093 -39.7317 -38.5423 -37.3407 -36.127 -34.9009 -33.6623 -32.411 -31.1468 -29.8696 -28.5793 -27.2755 -25.9583 -24.6273 -23.2824 -21.9234 -20.5502 -19.1625 -17.7601 -16.3429 -14.9106 -13.4631 -12 -10.5213 -9.0267 -7.51593 -5.98881 -4.4451 -2.88457 -1.30698 0.287923 1.90038 3.53064 5.17897 6.84562 8.53088 10.235 11.9583 13.701 15.4634 17.2459 -209 -207.747 -206.495 -205.244 -203.995 -202.748 -201.502 -200.257 -199.014 -197.772 -196.532 -195.294 -194.057 -192.821 -191.588 -190.356 -189.125 -187.896 -186.669 -185.443 -184.219 -182.997 -181.776 -180.557 -179.34 -178.124 -176.911 -175.699 -174.488 -173.28 -172.073 -170.868 -169.665 -168.464 -167.265 -166.067 -164.872 -163.678 -162.486 -161.296 -160.109 -158.923 -157.739 -156.557 -155.377 -154.199 -153.023 -151.849 -150.678 -149.508 -148.341 -147.175 -146.012 -144.851 -143.693 -142.536 -141.382 -140.23 -139.08 -137.932 -136.787 -135.644 -134.504 -133.366 -132.23 -131.097 -129.966 -128.837 -127.712 -126.588 -125.467 -124.349 -123.233 -122.12 -121.01 -119.902 -118.796 -117.694 -116.594 -115.497 -114.403 -113.311 -112.223 -111.137 -110.054 -108.974 -107.897 -106.823 -105.752 -104.684 -103.619 -102.557 -101.498 -100.442 -99.3899 -98.3406 -97.2945 -96.2517 -95.2121 -94.176 -93.1431 -92.4862 -91.8231 -91.1539 -90.4785 -89.7969 -89.1089 -88.4145 -87.7137 -87.0063 -86.2924 -85.5718 -84.8445 -84.1103 -83.3693 -82.6214 -81.8664 -81.1044 -80.3352 -79.5587 -78.775 -77.9838 -77.1851 -76.3789 -75.5651 -74.7435 -73.9141 -73.0768 -72.2316 -71.3782 -70.5167 -69.647 -68.7689 -67.8823 -66.9873 -66.0836 -65.1712 -64.2499 -63.3198 -62.3805 -61.4322 -60.4746 -59.5077 -58.5313 -57.5454 -56.5497 -55.5443 -54.529 -53.5036 -52.4681 -51.4223 -50.3661 -49.2994 -48.222 -47.1339 -46.0349 -44.9248 -43.8035 -42.6709 -41.5269 -40.3713 -39.2039 -38.0246 -36.8332 -35.6297 -34.4138 -33.1854 -31.9443 -30.6904 -29.4234 -28.1433 -26.8499 -25.5429 -24.2222 -22.8876 -21.539 -20.1761 -18.7987 -17.4068 -15.9999 -14.578 -13.1409 -11.6883 -10.22 -8.73583 -7.23554 -5.71891 -4.18571 -2.6357 -1.06864 0.515707 2.11759 3.73727 5.37499 7.03102 8.70564 10.3991 12.1117 13.8437 15.5954 17.3671 -206.648 -205.408 -204.17 -202.933 -201.697 -200.463 -199.23 -197.999 -196.769 -195.541 -194.314 -193.089 -191.865 -190.643 -189.423 -188.204 -186.986 -185.77 -184.556 -183.344 -182.133 -180.923 -179.716 -178.51 -177.306 -176.103 -174.902 -173.703 -172.506 -171.31 -170.116 -168.924 -167.734 -166.546 -165.359 -164.174 -162.991 -161.81 -160.631 -159.454 -158.279 -157.105 -155.934 -154.765 -153.597 -152.432 -151.268 -150.107 -148.948 -147.791 -146.635 -145.482 -144.332 -143.183 -142.036 -140.892 -139.75 -138.61 -137.472 -136.337 -135.203 -134.073 -132.944 -131.818 -130.694 -129.573 -128.454 -127.337 -126.223 -125.111 -124.002 -122.895 -121.791 -120.69 -119.591 -118.494 -117.401 -116.31 -115.221 -114.136 -113.053 -111.973 -110.895 -109.821 -108.749 -107.68 -106.614 -105.551 -104.491 -103.434 -102.38 -101.329 -100.281 -99.236 -98.1943 -97.1557 -96.1203 -95.0882 -94.0592 -93.0336 -92.0113 -91.364 -90.7107 -90.0512 -89.3856 -88.7136 -88.0354 -87.3508 -86.6597 -85.9621 -85.2579 -84.5471 -83.8295 -83.1052 -82.374 -81.6358 -80.8907 -80.1385 -79.3791 -78.6124 -77.8385 -77.0572 -76.2683 -75.472 -74.668 -73.8563 -73.0368 -72.2094 -71.374 -70.5306 -69.679 -68.8192 -67.951 -67.0744 -66.1893 -65.2956 -64.3931 -63.4818 -62.5616 -61.6324 -60.6941 -59.7465 -58.7896 -57.8232 -56.8473 -55.8617 -54.8664 -53.8611 -52.8458 -51.8204 -50.7847 -49.7386 -48.682 -47.6148 -46.5368 -45.4479 -44.348 -43.2369 -42.1145 -40.9806 -39.8352 -38.678 -37.509 -36.3279 -35.1346 -33.9289 -32.7108 -31.48 -30.2364 -28.9798 -27.71 -26.4269 -25.1303 -23.82 -22.4958 -21.1575 -19.8051 -18.4381 -17.0566 -15.6602 -14.2488 -12.8222 -11.3801 -9.9223 -8.44866 -6.95893 -5.45287 -3.93025 -2.39084 -0.834404 0.739305 2.33053 3.93953 5.56656 7.21189 8.87577 10.5585 12.2603 13.9815 15.7225 17.4833 -204.299 -203.072 -201.847 -200.623 -199.401 -198.18 -196.961 -195.743 -194.526 -193.311 -192.098 -190.886 -189.676 -188.467 -187.259 -186.053 -184.849 -183.646 -182.445 -181.246 -180.048 -178.852 -177.657 -176.464 -175.273 -174.083 -172.895 -171.709 -170.525 -169.342 -168.161 -166.982 -165.804 -164.628 -163.455 -162.283 -161.112 -159.944 -158.777 -157.613 -156.45 -155.289 -154.13 -152.974 -151.819 -150.666 -149.515 -148.366 -147.219 -146.074 -144.931 -143.79 -142.652 -141.515 -140.381 -139.248 -138.118 -136.99 -135.865 -134.741 -133.62 -132.501 -131.385 -130.27 -129.158 -128.049 -126.942 -125.837 -124.734 -123.634 -122.537 -121.442 -120.349 -119.259 -118.172 -117.087 -116.005 -114.925 -113.848 -112.774 -111.702 -110.633 -109.567 -108.504 -107.443 -106.385 -105.331 -104.279 -103.23 -102.183 -101.14 -100.1 -99.0629 -98.0288 -96.9978 -95.9699 -94.9452 -93.9236 -92.9053 -91.8902 -90.8783 -90.2408 -89.5972 -88.9475 -88.2916 -87.6295 -86.961 -86.2862 -85.6049 -84.9171 -84.2227 -83.5217 -82.814 -82.0994 -81.3781 -80.6498 -79.9145 -79.1721 -78.4226 -77.6658 -76.9017 -76.1303 -75.3514 -74.5649 -73.7709 -72.9691 -72.1595 -71.342 -70.5166 -69.6831 -68.8415 -67.9916 -67.1335 -66.2669 -65.3917 -64.508 -63.6156 -62.7143 -61.8042 -60.885 -59.9567 -59.0192 -58.0723 -57.1161 -56.1502 -55.1748 -54.1895 -53.1944 -52.1892 -51.1739 -50.1484 -49.1125 -48.0661 -47.009 -45.9412 -44.8626 -43.7729 -42.672 -41.5598 -40.4363 -39.3011 -38.1542 -36.9954 -35.8246 -34.6417 -33.4464 -32.2386 -31.0182 -29.7849 -28.5387 -27.2793 -26.0066 -24.7205 -23.4206 -22.1069 -20.7791 -19.4371 -18.0807 -16.7097 -15.3238 -13.923 -12.5069 -11.0754 -9.6282 -8.16519 -6.68608 -5.19067 -3.67872 -2.15 -0.604271 0.958715 2.5392 4.13744 5.7537 7.38822 9.04129 10.7132 12.4041 14.1145 15.8445 17.5945 -201.951 -200.738 -199.526 -198.316 -197.107 -195.9 -194.693 -193.489 -192.286 -191.084 -189.884 -188.685 -187.488 -186.292 -185.098 -183.905 -182.714 -181.524 -180.336 -179.15 -177.965 -176.782 -175.6 -174.42 -173.242 -172.065 -170.89 -169.717 -168.545 -167.375 -166.207 -165.04 -163.876 -162.713 -161.551 -160.392 -159.234 -158.079 -156.925 -155.773 -154.623 -153.474 -152.328 -151.183 -150.041 -148.9 -147.762 -146.625 -145.49 -144.358 -143.227 -142.099 -140.972 -139.848 -138.726 -137.605 -136.487 -135.372 -134.258 -133.147 -132.037 -130.93 -129.826 -128.723 -127.623 -126.525 -125.43 -124.337 -123.246 -122.158 -121.072 -119.988 -118.907 -117.829 -116.753 -115.679 -114.609 -113.54 -112.475 -111.412 -110.351 -109.294 -108.239 -107.186 -106.137 -105.09 -104.046 -103.005 -101.967 -100.932 -99.8998 -98.8704 -97.8441 -96.8207 -95.8004 -94.7832 -93.7691 -92.7581 -91.7502 -90.7456 -89.7442 -89.1165 -88.4827 -87.8428 -87.1967 -86.5443 -85.8857 -85.2207 -84.5492 -83.8713 -83.1868 -82.4956 -81.7977 -81.0931 -80.3816 -79.6632 -78.9378 -78.2053 -77.4657 -76.7189 -75.9647 -75.2032 -74.4342 -73.6577 -72.8736 -72.0818 -71.2822 -70.4747 -69.6593 -68.8358 -68.0042 -67.1644 -66.3162 -65.4597 -64.5946 -63.7209 -62.8386 -61.9474 -61.0473 -60.1382 -59.2201 -58.2927 -57.356 -56.4098 -55.4542 -54.4888 -53.5137 -52.5288 -51.5338 -50.5287 -49.5134 -48.4877 -47.4516 -46.4048 -45.3473 -44.2788 -43.1994 -42.1089 -41.007 -39.8938 -38.7689 -37.6324 -36.484 -35.3236 -34.151 -32.9661 -31.7688 -30.5588 -29.336 -28.1002 -26.8513 -25.5891 -24.3134 -23.024 -21.7209 -20.4036 -19.0722 -17.7264 -16.3659 -14.9907 -13.6005 -12.195 -10.7742 -9.33772 -7.8854 -6.41701 -4.93233 -3.43114 -1.91318 -0.37824 1.17394 2.7436 4.33099 5.93638 7.56002 9.20218 10.8631 12.5432 14.2425 15.9616 17.7005 -199.606 -198.406 -197.208 -196.011 -194.815 -193.621 -192.428 -191.237 -190.047 -188.858 -187.671 -186.486 -185.302 -184.119 -182.938 -181.759 -180.58 -179.404 -178.229 -177.056 -175.884 -174.713 -173.545 -172.378 -171.212 -170.048 -168.886 -167.726 -166.567 -165.41 -164.254 -163.1 -161.948 -160.798 -159.65 -158.503 -157.358 -156.215 -155.073 -153.934 -152.796 -151.66 -150.526 -149.394 -148.264 -147.136 -146.01 -144.885 -143.763 -142.643 -141.524 -140.408 -139.294 -138.181 -137.071 -135.963 -134.857 -133.753 -132.652 -131.552 -130.455 -129.36 -128.267 -127.176 -126.088 -125.002 -123.918 -122.837 -121.758 -120.681 -119.607 -118.535 -117.465 -116.398 -115.334 -114.272 -113.212 -112.155 -111.101 -110.049 -109 -107.954 -106.91 -105.869 -104.83 -103.795 -102.762 -101.732 -100.704 -99.6801 -98.6586 -97.6401 -96.6245 -95.6118 -94.6021 -93.5955 -92.5919 -91.5915 -90.5941 -89.5999 -88.6089 -87.991 -87.367 -86.7369 -86.1007 -85.4582 -84.8095 -84.1543 -83.4928 -82.8247 -82.1501 -81.4688 -80.7809 -80.0861 -79.3846 -78.6761 -77.9606 -77.2381 -76.5085 -75.7716 -75.0274 -74.2759 -73.5169 -72.7504 -71.9763 -71.1945 -70.405 -69.6075 -68.8021 -67.9887 -67.1672 -66.3374 -65.4993 -64.6529 -63.7979 -62.9343 -62.0621 -61.1811 -60.2911 -59.3922 -58.4842 -57.567 -56.6405 -55.7045 -54.7