<?xml version="1.0"?> 
<VTKFile type="StructuredGrid" version="0.1"> 
<StructuredGrid WholeExtent="0 200 0 200 0 0"> 
<Piece Extent="0 200 0 200 0 0"> 
<PointData Vectors="Displ">
<DataArray type="Float32" Name="Displ" format="ascii" NumberOfComponents="3"> 
0 0 0 0.00545268 0.0193278 0 0.0113567 0.03904 0 0.017712 0.0591366 0 0.0245186 0.0796176 0 0.0317766 0.100483 0 0.0394859 0.121733 0 0.0476464 0.143367 0 0.0562583 0.165385 0 0.0653216 0.187788 0 0.0748361 0.210576 0 0.084802 0.233747 0 0.0952191 0.257303 0 0.106088 0.281244 0 0.117407 0.305569 0 0.129179 0.330278 0 0.141401 0.355372 0 0.154075 0.38085 0 0.1672 0.406712 0 0.180776 0.432959 0 0.194804 0.45959 0 0.209283 0.486606 0 0.224213 0.514006 0 0.239595 0.54179 0 0.255428 0.569959 0 0.271712 0.598512 0 0.288448 0.627449 0 0.305635 0.656771 0 0.323273 0.686478 0 0.341362 0.716568 0 0.359903 0.747043 0 0.378896 0.777903 0 0.398339 0.809147 0 0.418234 0.840775 0 0.43858 0.872788 0 0.459377 0.905185 0 0.480626 0.937966 0 0.502326 0.971132 0 0.524478 1.00468 0 0.54708 1.03862 0 0.570135 1.07294 0 0.59364 1.10764 0 0.617597 1.14273 0 0.642005 1.1782 0 0.666864 1.21406 0 0.692174 1.2503 0 0.717936 1.28692 0 0.74415 1.32393 0 0.770814 1.36133 0 0.79793 1.3991 0 0.825497 1.43727 0 0.853151 1.47624 0 0.880524 1.51644 0 0.907619 1.55788 0 0.934434 1.60055 0 0.96097 1.64446 0 0.987226 1.6896 0 1.0132 1.73597 0 1.0389 1.78358 0 1.06432 1.83242 0 1.08946 1.88249 0 1.11432 1.9338 0 1.1389 1.98634 0 1.1632 2.04011 0 1.18722 2.09512 0 1.21096 2.15136 0 1.23442 2.20883 0 1.25761 2.26754 0 1.28051 2.32748 0 1.30314 2.38865 0 1.32548 2.45106 0 1.34755 2.5147 0 1.36933 2.57957 0 1.39084 2.64568 0 1.41207 2.71302 0 1.43302 2.7816 0 1.45369 2.85141 0 1.47408 2.92245 0 1.49419 2.99472 0 1.51402 3.06823 0 1.53357 3.14297 0 1.55284 3.21895 0 1.57184 3.29616 0 1.59055 3.3746 0 1.60898 3.45427 0 1.62714 3.53518 0 1.64501 3.61733 0 1.66261 3.7007 0 1.67993 3.78531 0 1.69696 3.87116 0 1.71372 3.95823 0 1.7302 4.04654 0 1.7464 4.13609 0 1.76232 4.22686 0 1.77796 4.31887 0 1.79332 4.41212 0 1.8084 4.50659 0 1.82321 4.6023 0 1.83773 4.69925 0 1.85197 4.79743 0 1.86594 4.89684 0 1.87908 4.99773 0 1.89086 5.10036 0 1.90127 5.20473 0 1.91032 5.31084 0 1.91801 5.41868 0 1.92433 5.52825 0 1.92929 5.63957 0 1.93289 5.75262 0 1.93512 5.8674 0 1.93599 5.98392 0 1.93549 6.10218 0 1.93363 6.22218 0 1.93041 6.34391 0 1.92582 6.46737 0 1.91987 6.59257 0 1.91255 6.71951 0 1.90387 6.84819 0 1.89383 6.9786 0 1.88242 7.11075 0 1.86965 7.24463 0 1.85551 7.38025 0 1.84001 7.5176 0 1.82315 7.6567 0 1.80492 7.79753 0 1.78533 7.94009 0 1.76438 8.08439 0 1.74206 8.23043 0 1.71838 8.3782 0 1.69333 8.52771 0 1.66692 8.67895 0 1.63914 8.83194 0 1.61 8.98665 0 1.5795 9.14311 0 1.54764 9.3013 0 1.51441 9.46122 0 1.47981 9.62289 0 1.44385 9.78628 0 1.40653 9.95142 0 1.36785 10.1183 0 1.3278 10.2869 0 1.28638 10.4572 0 1.24361 10.6293 0 1.19946 10.8031 0 1.15396 10.9787 0 1.10709 11.156 0 1.05886 11.335 0 1.00926 11.5158 0 0.958298 11.6983 0 0.905973 11.8825 0 0.852284 12.0685 0 0.796858 12.2559 0 0.739322 12.4446 0 0.679675 12.6345 0 0.617918 12.8257 0 0.554051 13.0181 0 0.488073 13.2118 0 0.419985 13.4066 0 0.349787 13.6027 0 0.277478 13.8001 0 0.203059 13.9987 0 0.12653 14.1985 0 0.0478898 14.3996 0 -0.0328602 14.6019 0 -0.115721 14.8054 0 -0.200691 15.0102 0 -0.287772 15.2162 0 -0.376964 15.4235 0 -0.468265 15.632 0 -0.561678 15.8417 0 -0.6572 16.0526 0 -0.754833 16.2648 0 -0.854576 16.4783 0 -0.956429 16.693 0 -1.06039 16.9089 0 -1.16647 17.126 0 -1.27465 17.3444 0 -1.38495 17.564 0 -1.49735 17.7849 0 -1.61187 18.007 0 -1.72849 18.2303 0 -1.84723 18.4549 0 -1.96808 18.6807 0 -2.09103 18.9077 0 -2.2161 19.136 0 -2.34328 19.3655 0 -2.47256 19.5963 0 -2.60396 19.8283 0 -2.73747 20.0615 0 -2.87309 20.296 0 -3.01082 20.5317 0 -3.15066 20.7686 0 -3.29261 21.0068 0 -3.43667 21.2462 0 -3.58284 21.4869 0 -3.73112 21.7288 0 -3.88151 21.9719 0 -4.03401 22.2163 0 -4.18862 22.4619 0 -4.34535 22.7087 0 -4.50418 22.9568 0 0 0 0 0.00588684 0.0195786 0 0.0122148 0.0395372 0 0.0189838 0.0598759 0 0.026194 0.0805946 0 0.0338453 0.101693 0 0.0419377 0.123172 0 0.0504712 0.145031 0 0.0594458 0.16727 0 0.0688615 0.189888 0 0.0787184 0.212887 0 0.0890163 0.236266 0 0.0997554 0.260025 0 0.110936 0.284164 0 0.122557 0.308683 0 0.134619 0.333582 0 0.147123 0.358861 0 0.160067 0.38452 0 0.173453 0.410559 0 0.18728 0.436978 0 0.201548 0.463777 0 0.216257 0.490957 0 0.231407 0.518516 0 0.246998 0.546455 0 0.263031 0.574774 0 0.279504 0.603473 0 0.296419 0.632553 0 0.313774 0.662012 0 0.331571 0.691851 0 0.349809 0.722071 0 0.368488 0.75267 0 0.387608 0.78365 0 0.40717 0.815009 0 0.427172 0.846749 0 0.447616 0.878868 0 0.4685 0.911368 0 0.489826 0.944247 0 0.511593 0.977507 0 0.533801 1.01115 0 0.55645 1.04517 0 0.57954 1.07957 0 0.603071 1.11435 0 0.627043 1.14951 0 0.651457 1.18505 0 0.676312 1.22096 0 0.701607 1.25726 0 0.727344 1.29394 0 0.753522 1.331 0 0.780141 1.36844 0 0.807201 1.40626 0 0.834702 1.44446 0 0.862279 1.48347 0 0.889564 1.52371 0 0.916558 1.56519 0 0.943261 1.60789 0 0.969673 1.65183 0 0.995793 1.69701 0 1.02162 1.74342 0 1.04716 1.79106 0 1.07241 1.83993 0 1.09736 1.89004 0 1.12203 1.94138 0 1.1464 1.99396 0 1.17049 2.04777 0 1.19428 2.10281 0 1.21778 2.15909 0 1.24099 2.2166 0 1.26391 2.27534 0 1.28653 2.33532 0 1.30887 2.39653 0 1.33091 2.45897 0 1.35267 2.52265 0 1.37413 2.58756 0 1.3953 2.65371 0 1.41618 2.72108 0 1.43677 2.7897 0 1.45707 2.85954 0 1.47708 2.93062 0 1.49679 3.00293 0 1.51622 3.07648 0 1.53535 3.15126 0 1.5542 3.22727 0 1.57275 3.30452 0 1.59101 3.383 0 1.60898 3.46271 0 1.62665 3.54366 0 1.64404 3.62584 0 1.66114 3.70926 0 1.67794 3.7939 0 1.69446 3.87978 0 1.71068 3.9669 0 1.72661 4.05525 0 1.74225 4.14483 0 1.7576 4.23565 0 1.77266 4.32769 0 1.78743 4.42098 0 1.8019 4.51549 0 1.81609 4.61124 0 1.82998 4.70823 0 1.84358 4.80644 0 1.85689 4.90589 0 1.86938 5.00683 0 1.8805 5.1095 0 1.89025 5.2139 0 1.89864 5.32003 0 1.90566 5.4279 0 1.91132 5.5375 0 1.91562 5.64884 0 1.91855 5.7619 0 1.92011 5.87671 0 1.92031 5.99324 0 1.91915 6.11151 0 1.91662 6.23151 0 1.91272 6.35325 0 1.90746 6.47672 0 1.90084 6.60192 0 1.89285 6.72886 0 1.8835 6.85753 0 1.87278 6.98793 0 1.8607 7.12007 0 1.84725 7.25394 0 1.83244 7.38955 0 1.81626 7.52688 0 1.79872 7.66596 0 1.77981 7.80676 0 1.75954 7.9493 0 1.7379 8.09357 0 1.7149 8.23958 0 1.69054 8.38731 0 1.66481 8.53679 0 1.63771 8.68799 0 1.60925 8.84093 0 1.57943 8.9956 0 1.54824 9.15201 0 1.51568 9.31015 0 1.48176 9.47002 0 1.44648 9.63163 0 1.40983 9.79497 0 1.37181 9.96005 0 1.33243 10.1269 0 1.29169 10.2954 0 1.24958 10.4657 0 1.20611 10.6377 0 1.16127 10.8114 0 1.11507 10.9869 0 1.0675 11.1641 0 1.01857 11.343 0 0.968272 11.5237 0 0.91661 11.7061 0 0.863584 11.8903 0 0.809192 12.0761 0 0.75307 12.2635 0 0.694849 12.4521 0 0.634531 12.6419 0 0.572114 12.833 0 0.5076 13.0253 0 0.440988 13.2189 0 0.372278 13.4137 0 0.301471 13.6097 0 0.228565 13.807 0 0.153562 14.0055 0 0.0764608 14.2052 0 -0.00273824 14.4062 0 -0.0840351 14.6084 0 -0.16743 14.8119 0 -0.252922 15.0166 0 -0.340513 15.2225 0 -0.430201 15.4297 0 -0.521987 15.6381 0 -0.615871 15.8477 0 -0.711853 16.0586 0 -0.809932 16.2707 0 -0.910109 16.4841 0 -1.01238 16.6987 0 -1.11676 16.9145 0 -1.22323 17.1316 0 -1.3318 17.3499 0 -1.44246 17.5695 0 -1.55523 17.7903 0 -1.67009 18.0123 0 -1.78705 18.2356 0 -1.90611 18.4601 0 -2.02726 18.6858 0 -2.15052 18.9128 0 -2.27587 19.141 0 -2.40332 19.3705 0 -2.53287 19.6012 0 -2.66451 19.8331 0 -2.79825 20.0663 0 -2.93409 20.3007 0 -3.07203 20.5363 0 -3.21207 20.7732 0 -3.3542 21.0113 0 -3.49844 21.2507 0 -3.64477 21.4913 0 -3.79319 21.7331 0 -3.94372 21.9762 0 -4.09634 22.2205 0 -4.25106 22.4661 0 -4.40788 22.7128 0 -4.5668 22.9609 0 0 0 0 0.00631495 0.019822 0 0.0130608 0.0400198 0 0.0202376 0.0605934 0 0.0278453 0.0815429 0 0.0358839 0.102868 0 0.0443534 0.124569 0 0.0532538 0.146646 0 0.0625852 0.169099 0 0.0723474 0.191928 0 0.0825406 0.215133 0 0.0931647 0.238713 0 0.10422 0.262669 0 0.115706 0.287001 0 0.127622 0.311709 0 0.13997 0.336793 0 0.152749 0.362252 0 0.165958 0.388088 0 0.179599 0.414299 0 0.19367 0.440886 0 0.208173 0.467849 0 0.223106 0.495188 0 0.23847 0.522902 0 0.254265 0.550993 0 0.270491 0.579459 0 0.287148 0.608301 0 0.304236 0.637519 0 0.321754 0.667113 0 0.339704 0.697083 0 0.358084 0.727428 0 0.376896 0.75815 0 0.396138 0.789247 0 0.415811 0.82072 0 0.435916 0.852569 0 0.456451 0.884793 0 0.477417 0.917394 0 0.498814 0.95037 0 0.520641 0.983723 0 0.5429 1.01745 0 0.56559 1.05155 0 0.58871 1.08603 0 0.612262 1.12089 0 0.636244 1.15612 0 0.660658 1.19173 0 0.685502 1.22771 0 0.710777 1.26407 0 0.736483 1.30081 0 0.76262 1.33792 0 0.789188 1.3754 0 0.816187 1.41326 0 0.843616 1.4515 0 0.87111 1.49055 0 0.898301 1.53082 0 0.925189 1.57233 0 0.951775 1.61508 0 0.978058 1.65905 0 1.00404 1.70426 0 1.02971 1.75071 0 1.05509 1.79839 0 1.08016 1.8473 0 1.10493 1.89745 0 1.1294 1.94883 0 1.15356 2.00144 0 1.17742 2.05528 0 1.20098 2.11037 0 1.22423 2.16668 0 1.24718 2.22423 0 1.26983 2.28301 0 1.29218 2.34302 0 1.31423 2.40427 0 1.33597 2.46675 0 1.3574 2.53047 0 1.37854 2.59542 0 1.39937 2.6616 0 1.4199 2.72902 0 1.44013 2.79767 0 1.46006 2.86755 0 1.47968 2.93867 0 1.499 3.01102 0 1.51801 3.08461 0 1.53673 3.15943 0 1.55514 3.23548 0 1.57324 3.31276 0 1.59105 3.39128 0 1.60855 3.47104 0 1.62575 3.55202 0 1.64265 3.63424 0 1.65924 3.7177 0 1.67553 3.80238 0 1.69152 3.88831 0 1.70721 3.97546 0 1.72259 4.06385 0 1.73767 4.15347 0 1.75245 4.24433 0 1.76693 4.33642 0 1.7811 4.42974 0 1.79497 4.5243 0 1.80853 4.62009 0 1.8218 4.71711 0 1.83476 4.81537 0 1.84742 4.91486 0 1.85924 5.01584 0 1.8697 5.11854 0 1.87879 5.22298 0 1.88652 5.32914 0 1.89288 5.43704 0 1.89788 5.54667 0 1.90151 5.65803 0 1.90377 5.77111 0 1.90467 5.88594 0 1.90421 6.00249 0 1.90237 6.12077 0 1.89918 6.24078 0 1.89461 6.36252 0 1.88869 6.486 0 1.88139 6.6112 0 1.87273 6.73814 0 1.86271 6.86681 0 1.85132 6.99721 0 1.83856 7.12933 0 1.82444 7.26319 0 1.80895 7.39878 0 1.7921 7.5361 0 1.77388 7.67516 0 1.7543 7.81594 0 1.73335 7.95845 0 1.71103 8.1027 0 1.68735 8.24867 0 1.6623 8.39638 0 1.63589 8.54582 0 1.60812 8.69698 0 1.57897 8.84988 0 1.54846 9.00451 0 1.51659 9.16087 0 1.48335 9.31896 0 1.44874 9.47878 0 1.41277 9.64034 0 1.37544 9.80362 0 1.33674 9.96863 0 1.29667 10.1354 0 1.25523 10.3039 0 1.21244 10.4741 0 1.16827 10.646 0 1.12274 10.8197 0 1.07585 10.9951 0 1.02759 11.1722 0 0.977959 11.3511 0 0.926967 11.5317 0 0.874609 11.714 0 0.820886 11.898 0 0.765797 12.0838 0 0.708983 12.2711 0 0.650084 12.4596 0 0.589099 12.6493 0 0.526029 12.8403 0 0.460874 13.0325 0 0.393633 13.226 0 0.324308 13.4207 0 0.252897 13.6167 0 0.1794 13.8138 0 0.103819 14.0123 0 0.0261523 14.2119 0 -0.0535997 14.4128 0 -0.135437 14.615 0 -0.219359 14.8183 0 -0.305367 15.0229 0 -0.39346 15.2288 0 -0.483638 15.4359 0 -0.575902 15.6442 0 -0.67025 15.8538 0 -0.766684 16.0646 0 -0.865204 16.2767 0 -0.965808 16.4899 0 -1.0685 16.7045 0 -1.17327 16.9202 0 -1.28013 17.1372 0 -1.38908 17.3555 0 -1.50011 17.575 0 -1.61323 17.7957 0 -1.72843 18.0177 0 -1.84571 18.2409 0 -1.96508 18.4653 0 -2.08654 18.691 0 -2.21008 18.9179 0 -2.33571 19.146 0 -2.46342 19.3754 0 -2.59322 19.6061 0 -2.72511 19.8379 0 -2.85907 20.0711 0 -2.99513 20.3054 0 -3.13327 20.541 0 -3.27349 20.7778 0 -3.4158 21.0159 0 -3.56019 21.2552 0 -3.70667 21.4957 0 -3.85524 21.7375 0 -4.00589 21.9806 0 -4.15863 22.2248 0 -4.31345 22.4703 0 -4.47035 22.7171 0 -4.62934 22.965 0 0 0 0 0.00673702 0.0200579 0 0.0138948 0.0404876 0 0.0214732 0.0612892 0 0.0294724 0.0824626 0 0.0378923 0.104008 0 0.046733 0.125925 0 0.0559943 0.148214 0 0.0656764 0.170874 0 0.0757792 0.193907 0 0.0863028 0.217311 0 0.0972471 0.241087 0 0.108612 0.265235 0 0.120398 0.289755 0 0.132604 0.314647 0 0.145231 0.33991 0 0.158279 0.365546 0 0.171748 0.391553 0 0.185637 0.417932 0 0.199947 0.444682 0 0.214678 0.471805 0 0.22983 0.4993 0 0.245402 0.527166 0 0.261395 0.555404 0 0.277809 0.584014 0 0.294643 0.612996 0 0.311898 0.642349 0 0.329574 0.672075 0 0.347671 0.702172 0 0.366188 0.732641 0 0.385126 0.763482 0 0.404485 0.794694 0 0.424264 0.826279 0 0.444464 0.858235 0 0.465085 0.890563 0 0.486127 0.923264 0 0.507589 0.956335 0 0.529473 0.989779 0 0.551776 1.02359 0 0.574501 1.05778 0 0.597646 1.09234 0 0.621212 1.12727 0 0.645199 1.16257 0 0.669606 1.19825 0 0.694435 1.2343 0 0.719684 1.27071 0 0.745353 1.3075 0 0.771444 1.34467 0 0.797955 1.3822 0 0.824887 1.42011 0 0.852239 1.45838 0 0.879645 1.49746 0 0.906736 1.53778 0 0.933513 1.57932 0 0.959976 1.62211 0 0.986125 1.66612 0 1.01196 1.71137 0 1.03748 1.75785 0 1.06268 1.80557 0 1.08758 1.85452 0 1.11215 1.9047 0 1.13642 1.95612 0 1.16036 2.00877 0 1.184 2.06266 0 1.20732 2.11778 0 1.23032 2.17413 0 1.25301 2.23172 0 1.27539 2.29054 0 1.29745 2.35059 0 1.3192 2.41188 0 1.34064 2.4744 0 1.36176 2.53816 0 1.38256 2.60314 0 1.40305 2.66937 0 1.42323 2.73682 0 1.44309 2.80551 0 1.46264 2.87544 0 1.48187 2.9466 0 1.50079 3.01899 0 1.5194 3.09261 0 1.53769 3.16747 0 1.55567 3.24356 0 1.57333 3.32089 0 1.59068 3.39945 0 1.60771 3.47924 0 1.62443 3.56027 0 1.64084 3.64253 0 1.65693 3.72603 0 1.6727 3.81076 0 1.68816 3.89672 0 1.70331 3.98392 0 1.71815 4.07235 0 1.73267 4.16201 0 1.74687 4.25291 0 1.76076 4.34504 0 1.77434 4.43841 0 1.7876 4.53301 0 1.80055 4.62884 0 1.81318 4.7259 0 1.8255 4.8242 0 1.8375 4.92374 0 1.84867 5.02475 0 1.85847 5.1275 0 1.8669 5.23197 0 1.87397 5.33817 0 1.87967 5.4461 0 1.884 5.55575 0 1.88697 5.66713 0 1.88857 5.78025 0 1.8888 5.89509 0 1.88767 6.01165 0 1.88517 6.12995 0 1.88131 6.24998 0 1.87608 6.37173 0 1.86948 6.49521 0 1.86152 6.62042 0 1.85219 6.74735 0 1.8415 6.87602 0 1.82943 7.00641 0 1.81601 7.13853 0 1.80121 7.27238 0 1.78505 7.40796 0 1.76753 7.54527 0 1.74863 7.6843 0 1.72837 7.82506 0 1.70675 7.96755 0 1.68376 8.11177 0 1.6594 8.25772 0 1.63368 8.40539 0 1.60659 8.5548 0 1.57813 8.70593 0 1.54831 8.85879 0 1.51712 9.01337 0 1.48457 9.16969 0 1.45064 9.32773 0 1.41536 9.4875 0 1.3787 9.649 0 1.34068 9.81223 0 1.3013 9.97719 0 1.26055 10.1439 0 1.21843 10.3123 0 1.17494 10.4824 0 1.13009 10.6543 0 1.08387 10.8279 0 1.03629 11.0032 0 0.98734 11.1803 0 0.937025 11.359 0 0.885342 11.5396 0 0.832294 11.7218 0 0.777879 11.9058 0 0.722098 12.0915 0 0.664598 12.2786 0 0.605025 12.467 0 0.54338 12.6567 0 0.479662 12.8476 0 0.413871 13.0397 0 0.346008 13.2331 0 0.276073 13.4277 0 0.204064 13.6236 0 0.129983 13.8207 0 0.0538301 14.019 0 -0.0243959 14.2186 0 -0.104694 14.4194 0 -0.187066 14.6215 0 -0.271509 14.8248 0 -0.358026 15.0293 0 -0.446614 15.2351 0 -0.537276 15.4421 0 -0.63001 15.6504 0 -0.724816 15.8599 0 -0.821695 16.0706 0 -0.920647 16.2826 0 -1.02167 16.4958 0 -1.12477 16.7103 0 -1.22994 16.926 0 -1.33718 17.1429 0 -1.44649 17.3611 0 -1.55788 17.5805 0 -1.67134 17.8011 0 -1.78687 18.023 0 -1.90448 18.2462 0 -2.02416 18.4706 0 -2.14591 18.6962 0 -2.26973 18.923 0 -2.39562 19.1511 0 -2.52359 19.3805 0 -2.65363 19.611 0 -2.78574 19.8429 0 -2.91993 20.0759 0 -3.05619 20.3102 0 -3.19452 20.5458 0 -3.33492 20.7825 0 -3.4774 21.0205 0 -3.62195 21.2598 0 -3.76857 21.5003 0 -3.91726 21.742 0 -4.06803 21.985 0 -4.22086 22.2292 0 -4.37578 22.4747 0 -4.53276 22.7214 0 -4.69182 22.9693 0 0 0 0 0.00715304 0.0202864 0 0.0147166 0.0409408 0 0.0226908 0.0619631 0 0.0310754 0.0833535 0 0.0398707 0.105112 0 0.0490764 0.127238 0 0.0586927 0.149732 0 0.0687196 0.172595 0 0.079157 0.195825 0 0.090005 0.219423 0 0.101263 0.24339 0 0.112932 0.267724 0 0.125012 0.292426 0 0.137502 0.317496 0 0.150403 0.342935 0 0.163714 0.368741 0 0.177436 0.394915 0 0.191568 0.421457 0 0.206111 0.448367 0 0.221064 0.475645 0 0.236428 0.503292 0 0.252203 0.531306 0 0.268388 0.559688 0 0.284984 0.588438 0 0.30199 0.617556 0 0.319406 0.647042 0 0.337234 0.676896 0 0.355471 0.707118 0 0.37412 0.737708 0 0.393179 0.768666 0 0.412648 0.799992 0 0.432528 0.831686 0 0.452818 0.863748 0 0.47352 0.896178 0 0.494631 0.928976 0 0.516153 0.962142 0 0.538086 0.995676 0 0.560429 1.02958 0 0.583183 1.06385 0 0.606347 1.09849 0 0.629922 1.13349 0 0.653908 1.16887 0 0.678304 1.20461 0 0.70311 1.24072 0 0.728327 1.2772 0 0.753955 1.31404 0 0.779993 1.35125 0 0.806442 1.38884 0 0.833301 1.42679 0 0.860571 1.4651 0 0.887883 1.50422 0 0.914869 1.54458 0 0.94153 1.58616 0 0.967865 1.62898 0 0.993874 1.67304 0 1.01956 1.71832 0 1.04492 1.76485 0 1.06995 1.8126 0 1.09465 1.86159 0 1.11903 1.91182 0 1.14309 1.96327 0 1.16682 2.01596 0 1.19022 2.06989 0 1.2133 2.12505 0 1.23605 2.18144 0 1.25848 2.23907 0 1.28058 2.29793 0 1.30235 2.35802 0 1.3238 2.41935 0 1.34493 2.48191 0 1.36572 2.54571 0 1.38619 2.61074 0 1.40634 2.677 0 1.42616 2.7445 0 1.44566 2.81323 0 1.46483 2.8832 0 1.48367 2.9544 0 1.50219 3.02683 0 1.52038 3.1005 0 1.53824 3.1754 0 1.55578 3.25153 0 1.573 3.3289 0 1.58989 3.4075 0 1.60645 3.48734 0 1.62269 3.56841 0 1.6386 3.65071 0 1.65418 3.73425 0 1.66945 3.81902 0 1.68438 3.90503 0 1.69899 3.99227 0 1.71327 4.08074 0 1.72723 4.17045 0 1.74086 4.26139 0 1.75417 4.35356 0 1.76715 4.44697 0 1.7798 4.54162 0 1.79213 4.63749 0 1.80413 4.7346 0 1.81581 4.83295 0 1.82716 4.93253 0 1.83767 5.03358 0 1.8468 5.13637 0 1.85458 5.24088 0 1.86098 5.34711 0 1.86602 5.45507 0 1.86969 5.56475 0 1.87199 5.67616 0 1.87293 5.7893 0 1.8725 5.90416 0 1.87071 6.02075 0 1.86754 6.13906 0 1.86301 6.2591 0 1.85712 6.38086 0 1.84985 6.50435 0 1.84122 6.62956 0 1.83123 6.7565 0 1.81986 6.88517 0 1.80713 7.01556 0 1.79304 7.14767 0 1.77757 7.28151 0 1.76074 7.41708 0 1.74254 7.55437 0 1.72298 7.69339 0 1.70205 7.83413 0 1.67975 7.9766 0 1.65609 8.1208 0 1.63105 8.26671 0 1.60466 8.41436 0 1.57689 8.56373 0 1.54776 8.71482 0 1.51726 8.86765 0 1.4854 9.02219 0 1.45216 9.17846 0 1.41756 9.33646 0 1.3816 9.49618 0 1.34427 9.65763 0 1.30557 9.82081 0 1.2655 9.9857 0 1.22407 10.1523 0 1.18127 10.3207 0 1.1371 10.4908 0 1.09157 10.6626 0 1.04467 10.8361 0 0.9964 11.0113 0 0.946767 11.1883 0 0.895766 11.367 0 0.843399 11.5474 0 0.789665 11.7296 0 0.734564 11.9135 0 0.678096 12.0991 0 0.619915 12.2862 0 0.559674 12.4745 0 0.497374 12.6641 0 0.433013 12.8549 0 0.366593 13.0469 0 0.298113 13.2402 0 0.227573 13.4348 0 0.154974 13.6305 0 0.0803144 13.8275 0 0.00359517 14.0258 0 -0.0751838 14.2253 0 -0.156023 14.426 0 -0.238921 14.628 0 -0.32388 14.8312 0 -0.410898 15.0357 0 -0.499976 15.2414 0 -0.591114 15.4483 0 -0.684311 15.6565 0 -0.779569 15.866 0 -0.876886 16.0766 0 -0.976263 16.2885 0 -1.0777 16.5017 0 -1.1812 16.7161 0 -1.28675 16.9317 0 -1.39437 17.1486 0 -1.50405 17.3667 0 -1.61578 17.586 0 -1.72958 17.8066 0 -1.84543 18.0285 0 -1.96335 18.2515 0 -2.08332 18.4759 0 -2.20536 18.7014 0 -2.32945 18.9282 0 -2.45561 19.1563 0 -2.58382 19.3855 0 -2.71409 19.6161 0 -2.84643 19.8478 0 -2.98082 20.0808 0 -3.11728 20.3151 0 -3.25579 20.5506 0 -3.39636 20.7873 0 -3.53899 21.0253 0 -3.68369 21.2645 0 -3.83044 21.5049 0 -3.97925 21.7466 0 -4.13012 21.9896 0 -4.28306 22.2337 0 -4.43805 22.4792 0 -4.5951 22.7258 0 -4.75421 22.9737 0 0 0 0 0.00756302 0.0205075 0 0.0155264 0.0413792 0 0.0238902 0.0626153 0 0.0326543 0.0842157 0 0.0418189 0.10618 0 0.0513838 0.12851 0 0.061349 0.151203 0 0.0717147 0.174261 0 0.0824807 0.197683 0 0.0936471 0.221469 0 0.105214 0.24562 0 0.117181 0.270135 0 0.129549 0.295014 0 0.142316 0.320258 0 0.155485 0.345866 0 0.169053 0.371838 0 0.183022 0.398174 0 0.197392 0.424875 0 0.212162 0.451941 0 0.227332 0.47937 0 0.242902 0.507164 0 0.258873 0.535322 0 0.275244 0.563845 0 0.292016 0.592732 0 0.309188 0.621983 0 0.326761 0.651598 0 0.344733 0.681578 0 0.363106 0.711922 0 0.38188 0.742631 0 0.401054 0.773704 0 0.420628 0.805141 0 0.440603 0.836942 0 0.460978 0.869108 0 0.481753 0.901638 0 0.502929 0.934532 0 0.524505 0.967791 0 0.546482 1.00141 0 0.568859 1.0354 0 0.591636 1.06975 0 0.614814 1.10447 0 0.638392 1.13955 0 0.66237 1.17499 0 0.686749 1.2108 0 0.711528 1.24698 0 0.736708 1.28351 0 0.762288 1.32042 0 0.788268 1.35768 0 0.814648 1.39531 0 0.84143 1.43331 0 0.868611 1.47167 0 0.895824 1.51083 0 0.9227 1.55122 0 0.949239 1.59284 0 0.975441 1.6357 0 1.00131 1.6798 0 1.02683 1.72513 0 1.05202 1.77169 0 1.07688 1.81949 0 1.10139 1.86852 0 1.12557 1.91878 0 1.14942 1.97028 0 1.17292 2.02301 0 1.19609 2.07698 0 1.21892 2.13218 0 1.24142 2.18861 0 1.26357 2.24628 0 1.28539 2.30518 0 1.30688 2.36532 0 1.32802 2.42669 0 1.34883 2.48929 0 1.36931 2.55313 0 1.38944 2.6182 0 1.40924 2.68451 0 1.4287 2.75205 0 1.44782 2.82082 0 1.46661 2.89083 0 1.48506 2.96207 0 1.50317 3.03455 0 1.52095 3.10826 0 1.53839 3.1832 0 1.55549 3.25938 0 1.57225 3.33679 0 1.58868 3.41544 0 1.60477 3.49532 0 1.62053 3.57643 0 1.63594 3.65878 0 1.65102 3.74236 0 1.66576 3.82718 0 1.68017 3.91323 0 1.69424 4.00051 0 1.70797 4.08903 0 1.72136 4.17878 0 1.73442 4.26977 0 1.74714 4.36199 0 1.75952 4.45544 0 1.77157 4.55013 0 1.78328 4.64605 0 1.79465 4.74321 0 1.80568 4.8416 0 1.81638 4.94122 0 1.82623 5.04232 0 1.83471 5.14515 0 1.84182 5.2497 0 1.84756 5.35597 0 1.85194 5.46396 0 1.85495 5.57368 0 1.85659 5.68511 0 1.85686 5.79828 0 1.85577 5.91316 0 1.85331 6.02977 0 1.84948 6.1481 0 1.84429 6.26815 0 1.83773 6.38992 0 1.8298 6.51342 0 1.8205 6.63864 0 1.80984 6.76558 0 1.79781 6.89425 0 1.78441 7.02464 0 1.76965 7.15675 0 1.75352 7.29058 0 1.73602 7.42614 0 1.71715 7.56342 0 1.69692 7.70242 0 1.67532 7.84315 0 1.65235 7.9856 0 1.62801 8.12977 0 1.60231 8.27566 0 1.57524 8.42328 0 1.5468 8.57261 0 1.517 8.72368 0 1.48583 8.87646 0 1.45329 9.03097 0 1.41938 9.1872 0 1.38411 9.34515 0 1.34747 9.50482 0 1.30946 9.66622 0 1.27009 9.82934 0 1.22934 9.99419 0 1.18723 10.1608 0 1.14376 10.329 0 1.09891 10.4991 0 1.0527 10.6708 0 1.00512 10.8442 0 0.956177 11.0194 0 0.905864 11.1963 0 0.854183 11.375 0 0.801136 11.5553 0 0.746721 11.7374 0 0.690939 11.9212 0 0.63379 12.1067 0 0.574934 12.2937 0 0.51403 12.4819 0 0.45108 12.6714 0 0.386083 12.8621 0 0.319039 13.0541 0 0.249948 13.2473 0 0.17881 13.4418 0 0.105625 13.6374 0 0.0303931 13.8344 0 -0.0468857 14.0326 0 -0.126211 14.232 0 -0.207584 14.4326 0 -0.291004 14.6345 0 -0.37647 14.8377 0 -0.463984 15.0421 0 -0.553544 15.2477 0 -0.645152 15.4546 0 -0.738806 15.6627 0 -0.834507 15.8721 0 -0.932256 16.0827 0 -1.03205 16.2945 0 -1.13389 16.5076 0 -1.23778 16.7219 0 -1.34372 16.9375 0 -1.4517 17.1543 0 -1.56173 17.3723 0 -1.67381 17.5916 0 -1.78793 17.8122 0 -1.9041 18.0339 0 -2.02232 18.257 0 -2.14258 18.4812 0 -2.2649 18.7067 0 -2.38925 18.9335 0 -2.51566 19.1615 0 -2.64411 19.3907 0 -2.77461 19.6212 0 -2.90716 19.8529 0 -3.04175 20.0858 0 -3.17839 20.32 0 -3.31708 20.5555 0 -3.45781 20.7922 0 -3.60059 21.0301 0 -3.74542 21.2692 0 -3.8923 21.5097 0 -4.04122 21.7513 0 -4.19219 21.9942 0 -4.3452 22.2383 0 -4.50026 22.4837 0 -4.65737 22.7303 0 -4.81653 22.9782 0 0 0 0 0.00796696 0.0207211 0 0.0163241 0.041803 0 0.0250715 0.0632457 0 0.0342091 0.0850493 0 0.0437369 0.107214 0 0.053655 0.129739 0 0.0639632 0.152625 0 0.0746616 0.175872 0 0.0857503 0.19948 0 0.0972292 0.223448 0 0.109098 0.247777 0 0.121358 0.272468 0 0.134007 0.297519 0 0.147047 0.322931 0 0.160477 0.348703 0 0.174297 0.374837 0 0.188507 0.401331 0 0.203108 0.428186 0 0.218099 0.455402 0 0.23348 0.482979 0 0.249251 0.510917 0 0.265413 0.539215 0 0.281964 0.567875 0 0.298906 0.596895 0 0.316238 0.626276 0 0.33396 0.656018 0 0.352073 0.68612 0 0.370576 0.716584 0 0.389469 0.747408 0 0.408752 0.778593 0 0.428425 0.810139 0 0.448489 0.842046 0 0.468943 0.874314 0 0.489787 0.906942 0 0.511021 0.939932 0 0.532645 0.973282 0 0.55466 1.00699 0 0.577065 1.04106 0 0.59986 1.0755 0 0.623045 1.11029 0 0.646621 1.14544 0 0.670587 1.18096 0 0.694942 1.21684 0 0.719689 1.25307 0 0.744825 1.28967 0 0.770352 1.32663 0 0.796268 1.36395 0 0.822575 1.40163 0 0.849273 1.43967 0 0.87636 1.47807 0 0.903468 1.51727 0 0.930229 1.5577 0 0.956641 1.59937 0 0.982704 1.64227 0 1.00842 1.68641 0 1.03379 1.73178 0 1.05881 1.77838 0 1.08348 1.82622 0 1.1078 1.87529 0 1.13177 1.9256 0 1.1554 1.97714 0 1.17868 2.02991 0 1.20161 2.08392 0 1.22419 2.13916 0 1.24642 2.19564 0 1.2683 2.25335 0 1.28984 2.3123 0 1.31103 2.37248 0 1.33187 2.43389 0 1.35236 2.49654 0 1.3725 2.56042 0 1.3923 2.62554 0 1.41175 2.69189 0 1.43084 2.75947 0 1.44959 2.82829 0 1.468 2.89834 0 1.48605 2.96963 0 1.50376 3.04215 0 1.52111 3.1159 0 1.53812 3.19089 0 1.55478 3.26711 0 1.5711 3.34457 0 1.58706 3.42326 0 1.60268 3.50318 0 1.61794 3.58434 0 1.63286 3.66674 0 1.64743 3.75037 0 1.66166 3.83523 0 1.67553 3.92132 0 1.68906 4.00865 0 1.70224 4.09722 0 1.71507 4.18701 0 1.72755 4.27805 0 1.73968 4.37031 0 1.75147 4.46381 0 1.7629 4.55855 0 1.77399 4.65452 0 1.78473 4.75172 0 1.79512 4.85016 0 1.80517 4.94983 0 1.81435 5.05098 0 1.82217 5.15384 0 1.82862 5.25843 0 1.83371 5.36474 0 1.83742 5.47277 0 1.83977 5.58252 0 1.84075 5.69398 0 1.84036 5.80717 0 1.83861 5.92208 0 1.83549 6.03871 0 1.831 6.15706 0 1.82514 6.27713 0 1.81792 6.39891 0 1.80932 6.52242 0 1.79936 6.64765 0 1.78803 6.7746 0 1.77534 6.90327 0 1.76128 7.03366 0 1.74585 7.16576 0 1.72905 7.29959 0 1.71088 7.43514 0 1.69135 7.57241 0 1.67045 7.7114 0 1.64818 7.85211 0 1.62454 7.99454 0 1.59954 8.13868 0 1.57317 8.28455 0 1.54543 8.43214 0 1.51632 8.58145 0 1.48585 8.73248 0 1.45401 8.88523 0 1.4208 9.0397 0 1.38622 9.19589 0 1.35028 9.35379 0 1.31297 9.51342 0 1.27429 9.67477 0 1.23424 9.83784 0 1.19283 10.0026 0 1.15004 10.1691 0 1.10589 10.3374 0 1.06038 10.5073 0 1.01349 10.679 0 0.96524 10.8524 0 0.91562 11.0275 0 0.864632 11.2043 0 0.812277 11.3829 0 0.758554 11.5631 0 0.703464 11.7451 0 0.647006 11.9288 0 0.58918 12.1143 0 0.529654 12.3012 0 0.468094 12.4893 0 0.404499 12.6787 0 0.338871 12.8694 0 0.271209 13.0612 0 0.201512 13.2544 0 0.129782 13.4487 0 0.0560179 13.6444 0 -0.0197804 13.8412 0 -0.0976126 14.0393 0 -0.177479 14.2387 0 -0.259379 14.4392 0 -0.343313 14.6411 0 -0.429282 14.8441 0 -0.517284 15.0485 0 -0.60732 15.254 0 -0.69939 15.4608 0 -0.793494 15.6689 0 -0.889633 15.8782 0 -0.987805 16.0887 0 -1.08801 16.3005 0 -1.19025 16.5135 0 -1.29453 16.7278 0 -1.40083 16.9433 0 -1.50918 17.16 0 -1.61955 17.378 0 -1.73196 17.5972 0 -1.84641 17.8177 0 -1.96288 18.0394 0 -2.0814 18.2624 0 -2.20194 18.4866 0 -2.32452 18.7121 0 -2.44914 18.9388 0 -2.57578 19.1667 0 -2.70447 19.3959 0 -2.83518 19.6263 0 -2.96793 19.858 0 -3.10272 20.0909 0 -3.23953 20.325 0 -3.37839 20.5604 0 -3.51927 20.7971 0 -3.66219 21.035 0 -3.80715 21.2741 0 -3.95413 21.5145 0 -4.10316 21.7561 0 -4.25421 21.9989 0 -4.4073 22.243 0 -4.56243 22.4884 0 -4.71958 22.735 0 -4.87878 22.9828 0 0 0 0 0.00836485 0.0209273 0 0.0171098 0.042212 0 0.0262347 0.0638543 0 0.0357398 0.0858541 0 0.0456249 0.108211 0 0.05589 0.130926 0 0.0665352 0.153999 0 0.0775605 0.177428 0 0.0889659 0.201216 0 0.100751 0.225361 0 0.112917 0.249863 0 0.125462 0.274723 0 0.138388 0.29994 0 0.151694 0.325515 0 0.165379 0.351448 0 0.179445 0.377738 0 0.193891 0.404385 0 0.208717 0.43139 0 0.223923 0.458753 0 0.239509 0.486473 0 0.255475 0.51455 0 0.271821 0.542985 0 0.288547 0.571778 0 0.305653 0.600928 0 0.32314 0.630435 0 0.341006 0.6603 0 0.359253 0.690523 0 0.377879 0.721103 0 0.396886 0.752041 0 0.416272 0.783336 0 0.436039 0.814989 0 0.456186 0.846999 0 0.476713 0.879366 0 0.49762 0.912092 0 0.518906 0.945174 0 0.540573 0.978614 0 0.562621 1.01241 0 0.585048 1.04657 0 0.607855 1.08108 0 0.631042 1.11595 0 0.654609 1.15118 0 0.678557 1.18676 0 0.702884 1.22271 0 0.727592 1.25901 0 0.752679 1.29566 0 0.778147 1.33268 0 0.803995 1.37005 0 0.830222 1.40778 0 0.85683 1.44587 0 0.883818 1.48432 0 0.910816 1.52356 0 0.937455 1.56403 0 0.963735 1.60574 0 0.989655 1.64869 0 1.01522 1.69286 0 1.04042 1.73828 0 1.06526 1.78492 0 1.08974 1.83281 0 1.11387 1.88192 0 1.13763 1.93227 0 1.16103 1.98385 0 1.18408 2.03667 0 1.20677 2.09072 0 1.22909 2.14601 0 1.25106 2.20253 0 1.27267 2.26029 0 1.29392 2.31928 0 1.31481 2.3795 0 1.33533 2.44096 0 1.35551 2.50365 0 1.37532 2.56758 0 1.39477 2.63274 0 1.41386 2.69913 0 1.43259 2.76676 0 1.45097 2.83562 0 1.46898 2.90572 0 1.48664 2.97705 0 1.50393 3.04962 0 1.52087 3.12342 0 1.53745 3.19846 0 1.55366 3.27472 0 1.56952 3.35223 0 1.58502 3.43096 0 1.60016 3.51094 0 1.61494 3.59214 0 1.62936 3.67458 0 1.64342 3.75826 0 1.65713 3.84317 0 1.67047 3.92931 0 1.68345 4.01669 0 1.69608 4.1053 0 1.70834 4.19514 0 1.72025 4.28622 0 1.73179 4.37854 0 1.74298 4.47209 0 1.75381 4.56687 0 1.76427 4.66289 0 1.77438 4.76014 0 1.78413 4.85862 0 1.79352 4.95834 0 1.80205 5.05954 0 1.80921 5.16245 0 1.815 5.26708 0 1.81942 5.37343 0 1.82248 5.48149 0 1.82416 5.59128 0 1.82448 5.70277 0 1.82343 5.81599 0 1.82102 5.93093 0 1.81723 6.04758 0 1.81208 6.16595 0 1.80556 6.28603 0 1.79768 6.40783 0 1.78842 6.53135 0 1.7778 6.65659 0 1.76581 6.78355 0 1.75245 6.91222 0 1.73772 7.04261 0 1.72163 7.17472 0 1.70416 7.30854 0 1.68533 7.44408 0 1.66514 7.58134 0 1.64357 7.72032 0 1.62064 7.86101 0 1.59634 8.00342 0 1.57067 8.14755 0 1.54363 8.2934 0 1.51523 8.44096 0 1.48545 8.59024 0 1.45431 8.74124 0 1.42181 8.89395 0 1.38793 9.04838 0 1.35269 9.20453 0 1.31607 9.3624 0 1.27809 9.52198 0 1.23875 9.68328 0 1.19803 9.8463 0 1.15595 10.011 0 1.1125 10.1775 0 1.06768 10.3457 0 1.02149 10.5155 0 0.97394 10.6872 0 0.925019 10.8605 0 0.874729 11.0355 0 0.823071 11.2123 0 0.770046 11.3907 0 0.715653 11.5709 0 0.659892 11.7528 0 0.602763 11.9365 0 0.544267 12.1218 0 0.484076 12.3086 0 0.421864 12.4967 0 0.357631 12.686 0 0.291377 12.8766 0 0.223103 13.0684 0 0.152807 13.2614 0 0.0804902 13.4557 0 0.00615255 13.6513 0 -0.070206 13.848 0 -0.148586 14.0461 0 -0.228986 14.2453 0 -0.311407 14.4458 0 -0.39585 14.6476 0 -0.482313 14.8506 0 -0.570797 15.0549 0 -0.661303 15.2603 0 -0.753829 15.4671 0 -0.848376 15.6751 0 -0.944944 15.8843 0 -1.04353 16.0948 0 -1.14414 16.3065 0 -1.24677 16.5194 0 -1.35143 16.7336 0 -1.4581 16.9491 0 -1.56679 17.1658 0 -1.67751 17.3837 0 -1.79024 17.6029 0 -1.905 17.8233 0 -2.02178 18.045 0 -2.14058 18.2679 0 -2.2614 18.492 0 -2.38424 18.7175 0 -2.5091 18.9441 0 -2.63598 19.172 0 -2.76488 19.4011 0 -2.89581 19.6315 0 -3.02875 19.8631 0 -3.16372 20.096 0 -3.30071 20.3301 0 -3.43971 20.5655 0 -3.58074 20.8021 0 -3.72379 21.0399 0 -3.86886