<?xml version="1.0"?> 
<VTKFile type="StructuredGrid" version="0.1"> 
<StructuredGrid WholeExtent="0 100 0 100 0 0"> 
<Piece Extent="0 100 0 100 0 0"> 
<PointData Vectors="Diplacement">
<DataArray type="Float32" Name="Diplacement" format="ascii" NumberOfComponents="3"> 
-0.00029233 0.000102875 0 -0.000292045 0.00010002 0 -0.000291755 9.71948e-05 0 -0.00029146 9.43978e-05 0 -0.000291161 9.16295e-05 0 -0.000290856 8.88897e-05 0 -0.000290547 8.61786e-05 0 -0.000290233 8.34961e-05 0 -0.000289913 8.08422e-05 0 -0.000289589 7.8217e-05 0 -0.000289261 7.56203e-05 0 -0.000288927 7.30523e-05 0 -0.000288589 7.05128e-05 0 -0.000288245 6.8002e-05 0 -0.000287897 6.55199e-05 0 -0.000287544 6.30663e-05 0 -0.000287186 6.06413e-05 0 -0.000286823 5.8245e-05 0 -0.000286456 5.58773e-05 0 -0.000286083 5.35382e-05 0 -0.000285706 5.12277e-05 0 -0.000285321 4.89384e-05 0 -0.000284927 4.6663e-05 0 -0.000284523 4.44013e-05 0 -0.000284108 4.21534e-05 0 -0.000283684 3.99194e-05 0 -0.00028325 3.76991e-05 0 -0.000282806 3.54927e-05 0 -0.000282353 3.33001e-05 0 -0.000281889 3.11212e-05 0 -0.000281416 2.89562e-05 0 -0.000280933 2.6805e-05 0 -0.000280439 2.46676e-05 0 -0.000279936 2.25439e-05 0 -0.000279423 2.04341e-05 0 -0.000278901 1.83381e-05 0 -0.000278368 1.62559e-05 0 -0.000277826 1.41875e-05 0 -0.000277273 1.21329e-05 0 -0.000276711 1.00922e-05 0 -0.000276139 8.06517e-06 0 -0.000275557 6.04513e-06 0 -0.000274963 4.02516e-06 0 -0.000274359 2.00527e-06 0 -0.000273743 -1.45408e-08 0 -0.000273117 -2.03428e-06 0 -0.00027248 -4.05394e-06 0 -0.000271832 -6.07353e-06 0 -0.000271172 -8.09304e-06 0 -0.000270502 -1.01125e-05 0 -0.000269821 -1.21318e-05 0 -0.000269129 -1.41511e-05 0 -0.000268426 -1.61703e-05 0 -0.000267712 -1.81895e-05 0 -0.000266987 -2.02085e-05 0 -0.000266251 -2.22275e-05 0 -0.000265504 -2.42464e-05 0 -0.000264746 -2.62652e-05 0 -0.000263978 -2.8284e-05 0 -0.000263198 -3.03027e-05 0 -0.000262407 -3.23213e-05 0 -0.000261601 -3.4348e-05 0 -0.000260777 -3.6391e-05 0 -0.000259933 -3.84502e-05 0 -0.00025907 -4.05258e-05 0 -0.000258188 -4.26176e-05 0 -0.000257287 -4.47257e-05 0 -0.000256367 -4.68501e-05 0 -0.000255428 -4.89908e-05 0 -0.00025447 -5.11477e-05 0 -0.000253493 -5.3321e-05 0 -0.000252497 -5.55105e-05 0 -0.000251482 -5.77163e-05 0 -0.000250448 -5.99384e-05 0 -0.000249394 -6.21768e-05 0 -0.000248322 -6.44314e-05 0 -0.000247231 -6.67023e-05 0 -0.000246121 -6.89895e-05 0 -0.000244991 -7.1293e-05 0 -0.000243843 -7.36128e-05 0 -0.000242675 -7.59489e-05 0 -0.000241487 -7.83233e-05 0 -0.000240274 -8.07583e-05 0 -0.000239039 -8.32538e-05 0 -0.000237779 -8.58099e-05 0 -0.000236497 -8.84265e-05 0 -0.00023519 -9.11036e-05 0 -0.00023386 -9.38413e-05 0 -0.000232507 -9.66395e-05 0 -0.00023113 -9.94982e-05 0 -0.00022973 -0.000102417 0 -0.000228306 -0.000105397 0 -0.000226858 -0.000108438 0 -0.000225387 -0.000111538 0 -0.000223893 -0.0001147 0 -0.000222375 -0.000117922 0 -0.000220833 -0.000121204 0 -0.000219268 -0.000124547 0 -0.00021768 -0.000127951 0 -0.000216068 -0.000131415 0 -0.000214432 -0.000134939 0 -0.00028938 0.000103035 0 -0.000289088 0.000100177 0 -0.000288791 9.73486e-05 0 -0.00028849 9.45479e-05 0 -0.000288183 9.17753e-05 0 -0.000287872 8.9031e-05 0 -0.000287556 8.63149e-05 0 -0.000287236 8.3627e-05 0 -0.00028691 8.09672e-05 0 -0.00028658 7.83357e-05 0 -0.000286245 7.57323e-05 0 -0.000285905 7.31572e-05 0 -0.000285561 7.06102e-05 0 -0.000285211 6.80914e-05 0 -0.000284857 6.56009e-05 0 -0.000284498 6.31385e-05 0 -0.000284135 6.07043e-05 0 -0.000283766 5.82983e-05 0 -0.000283393 5.59205e-05 0 -0.000283015 5.35709e-05 0 -0.000282632 5.12495e-05 0 -0.000282241 4.89491e-05 0 -0.000281841 4.66622e-05 0 -0.000281431 4.4389e-05 0 -0.000281011 4.21294e-05 0 -0.000280581 3.98834e-05 0 -0.000280141 3.76511e-05 0 -0.000279691 3.54323e-05 0 -0.000279231 3.32273e-05 0 -0.000278761 3.10358e-05 0 -0.000278281 2.8858e-05 0 -0.000277791 2.66938e-05 0 -0.000277291 2.45432e-05 0 -0.000276781 2.24063e-05 0 -0.000276261 2.0283e-05 0 -0.000275732 1.81733e-05 0 -0.000275192 1.60773e-05 0 -0.000274642 1.39948e-05 0 -0.000274083 1.19261e-05 0 -0.000273513 9.8709e-06 0 -0.000272934 7.82937e-06 0 -0.000272343 5.79469e-06 0 -0.000271742 3.76006e-06 0 -0.000271129 1.7255e-06 0 -0.000270505 -3.08998e-07 0 -0.000269869 -2.34344e-06 0 -0.000269222 -4.37782e-06 0 -0.000268564 -6.41213e-06 0 -0.000267894 -8.44639e-06 0 -0.000267213 -1.04806e-05 0 -0.00026652 -1.25147e-05 0 -0.000265816 -1.45488e-05 0 -0.000265101 -1.65828e-05 0 -0.000264375 -1.86168e-05 0 -0.000263637 -2.06506e-05 0 -0.000262888 -2.26845e-05 0 -0.000262127 -2.47182e-05 0 -0.000261355 -2.67519e-05 0 -0.000260572 -2.87856e-05 0 -0.000259777 -3.08192e-05 0 -0.000258971 -3.28527e-05 0 -0.000258149 -3.48945e-05 0 -0.000257308 -3.69528e-05 0 -0.000256447 -3.90277e-05 0 -0.000255567 -4.11192e-05 0 -0.000254667 -4.32272e-05 0 -0.000253748 -4.53518e-05 0 -0.000252809 -4.7493e-05 0 -0.000251851 -4.96507e-05 0 -0.000250873 -5.1825e-05 0 -0.000249875 -5.40159e-05 0 -0.000248858 -5.62233e-05 0 -0.000247821 -5.84473e-05 0 -0.000246765 -6.06879e-05 0 -0.000245689 -6.2945e-05 0 -0.000244594 -6.52187e-05 0 -0.000243479 -6.7509e-05 0 -0.000242344 -6.98158e-05 0 -0.00024119 -7.21392e-05 0 -0.000240016 -7.44791e-05 0 -0.000238823 -7.68356e-05 0 -0.000237609 -7.92288e-05 0 -0.000236373 -8.16787e-05 0 -0.000235115 -8.41853e-05 0 -0.000233835 -8.67487e-05 0 -0.000232532 -8.93688e-05 0 -0.000231208 -9.20456e-05 0 -0.000229861 -9.47792e-05 0 -0.000228493 -9.75695e-05 0 -0.000227102 -0.000100417 0 -0.000225689 -0.00010332 0 -0.000224255 -0.000106281 0 -0.000222798 -0.000109298 0 -0.000221319 -0.000112372 0 -0.000219818 -0.000115503 0 -0.000218295 -0.00011869 0 -0.000216749 -0.000121934 0 -0.000215182 -0.000125235 0 -0.000213593 -0.000128593 0 -0.000211981 -0.000132007 0 -0.000210348 -0.000135478 0 -0.000286431 0.000103181 0 -0.000286132 0.000100321 0 -0.000285829 9.74895e-05 0 -0.000285521 9.46853e-05 0 -0.000285208 9.1909e-05 0 -0.000284891 8.91604e-05 0 -0.000284569 8.64395e-05 0 -0.000284242 8.37465e-05 0 -0.00028391 8.10812e-05 0 -0.000283574 7.84437e-05 0 -0.000283233 7.58339e-05 0 -0.000282887 7.32519e-05 0 -0.000282537 7.06976e-05 0 -0.000282181 6.81712e-05 0 -0.000281821 6.56725e-05 0 -0.000281457 6.32015e-05 0 -0.000281087 6.07584e-05 0 -0.000280713 5.8343e-05 0 -0.000280334 5.59553e-05 0 -0.00027995 5.35954e-05 0 -0.000279562 5.12633e-05 0 -0.000279166 4.89518e-05 0 -0.00027876 4.66538e-05 0 -0.000278345 4.43692e-05 0 -0.000277919 4.2098e-05 0 -0.000277483 3.98403e-05 0 -0.000277037 3.75961e-05 0 -0.000276581 3.53653e-05 0 -0.000276114 3.31479e-05 0 -0.000275638 3.0944e-05 0 -0.000275152 2.87536e-05 0 -0.000274656 2.65766e-05 0 -0.00027415 2.4413e-05 0 -0.000273633 2.22629e-05 0 -0.000273107 2.01263e-05 0 -0.00027257 1.80031e-05 0 -0.000272024 1.58934e-05 0 -0.000271467 1.37971e-05 0 -0.000270901 1.17142e-05 0 -0.000270324 9.64485e-06 0 -0.000269737 7.58891e-06 0 -0.00026914 5.53972e-06 0 -0.000268531 3.49057e-06 0 -0.000267909 1.44146e-06 0 -0.000267277 -6.07601e-07 0 -0.000266632 -2.65662e-06 0 -0.000265976 -4.7056e-06 0 -0.000265308 -6.75453e-06 0 -0.000264628 -8.80342e-06 0 -0.000263937 -1.08523e-05 0 -0.000263233 -1.29011e-05 0 -0.000262518 -1.49498e-05 0 -0.000261792 -1.69986e-05 0 -0.000261053 -1.90472e-05 0 -0.000260303 -2.10959e-05 0 -0.000259541 -2.31445e-05 0 -0.000258768 -2.5193e-05 0 -0.000257982 -2.72415e-05 0 -0.000257185 -2.929e-05 0 -0.000256376 -3.13384e-05 0 -0.000255556 -3.33867e-05 0 -0.000254719 -3.54435e-05 0 -0.000253863 -3.75171e-05 0 -0.000252986 -3.96074e-05 0 -0.00025209 -4.17146e-05 0 -0.000251173 -4.38385e-05 0 -0.000250237 -4.59793e-05 0 -0.00024928 -4.81369e-05 0 -0.000248303 -5.03112e-05 0 -0.000247307 -5.25024e-05 0 -0.00024629 -5.47104e-05 0 -0.000245254 -5.69351e-05 0 -0.000244197 -5.91767e-05 0 -0.00024312 -6.14351e-05 0 -0.000242024 -6.37103e-05 0 -0.000240907 -6.60023e-05 0 -0.00023977 -6.8311e-05 0 -0.000238614 -7.06366e-05 0 -0.000237437 -7.2979e-05 0 -0.00023624 -7.53382e-05 0 -0.000235024 -7.77142e-05 0 -0.000233786 -8.01251e-05 0 -0.000232529 -8.2589e-05 0 -0.00023125 -8.5106e-05 0 -0.000229951 -8.76761e-05 0 -0.000228631 -9.02991e-05 0 -0.000227291 -9.29752e-05 0 -0.00022593 -9.57043e-05 0 -0.000224548 -9.84865e-05 0 -0.000223145 -0.000101322 0 -0.000221722 -0.00010421 0 -0.000220278 -0.000107151 0 -0.000218813 -0.000110146 0 -0.000217328 -0.000113193 0 -0.000215822 -0.000116293 0 -0.000214296 -0.000119447 0 -0.000212748 -0.000122653 0 -0.00021118 -0.000125913 0 -0.000209591 -0.000129225 0 -0.000207982 -0.000132591 0 -0.000206352 -0.00013601 0 -0.000283484 0.000103314 0 -0.000283179 0.000100452 0 -0.00028287 9.76175e-05 0 -0.000282555 9.48103e-05 0 -0.000282236 9.20304e-05 0 -0.000281913 8.92778e-05 0 -0.000281584 8.65526e-05 0 -0.000281251 8.38547e-05 0 -0.000280913 8.11841e-05 0 -0.000280571 7.85409e-05 0 -0.000280224 7.5925e-05 0 -0.000279872 7.33364e-05 0 -0.000279516 7.07752e-05 0 -0.000279155 6.82413e-05 0 -0.000278789 6.57347e-05 0 -0.000278419 6.32554e-05 0 -0.000278044 6.08035e-05 0 -0.000277664 5.83789e-05 0 -0.00027728 5.59816e-05 0 -0.000276891 5.36117e-05 0 -0.000276497 5.1269e-05 0 -0.000276096 4.89467e-05 0 -0.000275685 4.66377e-05 0 -0.000275263 4.43419e-05 0 -0.000274832 4.20594e-05 0 -0.00027439 3.97902e-05 0 -0.000273938 3.75342e-05 0 -0.000273476 3.52915e-05 0 -0.000273004 3.3062e-05 0 -0.000272522 3.08459e-05 0 -0.00027203 2.8643e-05 0 -0.000271528 2.64534e-05 0 -0.000271015 2.4277e-05 0 -0.000270493 2.21139e-05 0 -0.00026996 1.99641e-05 0 -0.000269417 1.78275e-05 0 -0.000268864 1.57042e-05 0 -0.000268301 1.35942e-05 0 -0.000267727 1.14975e-05 0 -0.000267144 9.41399e-06 0 -0.000266551 7.34378e-06 0 -0.000265946 5.28022e-06 0 -0.000265329 3.21667e-06 0 -0.0002647 1.15315e-06 0 -0.000264059 -9.1035e-07 0 -0.000263406 -2.97383e-06 0 -0.000262741 -5.03729e-06 0 -0.000262064 -7.10072e-06 0 -0.000261375 -9.16414e-06 0 -0.000260674 -1.12275e-05 0 -0.00025996 -1.32909e-05 0 -0.000259235 -1.53542e-05 0 -0.000258497 -1.74176e-05 0 -0.000257748 -1.94809e-05 0 -0.000256986 -2.15442e-05 0 -0.000256212 -2.36074e-05 0 -0.000255426 -2.56707e-05 0 -0.000254628 -2.77339e-05 0 -0.000253818 -2.97971e-05 0 -0.000252996 -3.18603e-05 0 -0.000252162 -3.39234e-05 0 -0.000251311 -3.59951e-05 0 -0.00025044 -3.80837e-05 0 -0.000249549 -4.01893e-05 0 -0.000248637 -4.23119e-05 0 -0.000247705 -4.44515e-05 0 -0.000246753 -4.66081e-05 0 -0.00024578 -4.87817e-05 0 -0.000244786 -5.09723e-05 0 -0.000243773 -5.31798e-05 0 -0.000242739 -5.54044e-05 0 -0.000241684 -5.76459e-05 0 -0.000240609 -5.99045e-05 0 -0.000239514 -6.218e-05 0 -0.000238398 -6.44725e-05 0 -0.000237262 -6.67821e-05 0 -0.000236106 -6.91086e-05 0 -0.000234929 -7.14521e-05 0 -0.000233732 -7.38126e-05 0 -0.000232514 -7.619e-05 0 -0.000231276 -7.85845e-05 0 -0.000230018 -8.10122e-05 0 -0.000228741 -8.34893e-05 0 -0.000227444 -8.60159e-05 0 -0.000226129 -8.8592e-05 0 -0.000224793 -9.12174e-05 0 -0.000223439 -9.38924e-05 0 -0.000222065 -9.66168e-05 0 -0.000220672 -9.93906e-05 0 -0.000219259 -0.000102214 0 -0.000217827 -0.000105087 0 -0.000216376 -0.000108009 0 -0.000214905 -0.00011098 0 -0.000213416 -0.000114001 0 -0.000211906 -0.000117072 0 -0.000210378 -0.000120192 0 -0.00020883 -0.000123361 0 -0.000207263 -0.00012658 0 -0.000205676 -0.000129849 0 -0.00020407 -0.000133166 0 -0.000202445 -0.000136534 0 -0.00028054 0.000103433 0 -0.000280229 0.000100569 0 -0.000279913 9.77326e-05 0 -0.000279592 9.49226e-05 0 -0.000279267 9.21396e-05 0 -0.000278937 8.93834e-05 0 -0.000278602 8.6654e-05 0 -0.000278263 8.39516e-05 0 -0.00027792 8.12761e-05 0 -0.000277571 7.86274e-05 0 -0.000277218 7.60057e-05 0 -0.000276861 7.34108e-05 0 -0.000276499 7.08428e-05 0 -0.000276132 6.83017e-05 0 -0.000275761 6.57874e-05 0 -0.000275385 6.33001e-05 0 -0.000275005 6.08396e-05 0 -0.000274619 5.84061e-05 0 -0.00027423 5.59994e-05 0 -0.000273835 5.36196e-05 0 -0.000273436 5.12667e-05 0 -0.00027303 4.89338e-05 0 -0.000272614 4.66139e-05 0 -0.000272187 4.43072e-05 0 -0.00027175 4.20135e-05 0 -0.000271303 3.97329e-05 0 -0.000270846 3.74654e-05 0 -0.000270378 3.5211e-05 0 -0.0002699 3.29696e-05 0 -0.000269413 3.07414e-05 0 -0.000268914 2.85262e-05 0 -0.000268406 2.63241e-05 0 -0.000267888 2.41351e-05 0 -0.000267359 2.19592e-05 0 -0.00026682 1.97963e-05 0 -0.000266271 1.76465e-05 0 -0.000265712 1.55099e-05 0 -0.000265142 1.33863e-05 0 -0.000264563 1.12758e-05 0 -0.000263973 9.17834e-06 0 -0.000263373 7.09399e-06 0 -0.000262762 5.01619e-06 0 -0.000262138 2.93838e-06 0 -0.000261502 8.60569e-07 0 -0.000260853 -1.21724e-06 0 -0.000260192 -3.29506e-06 0 -0.000259519 -5.37288e-06 0 -0.000258833 -7.45071e-06 0 -0.000258135 -9.52853e-06 0 -0.000257424 -1.16064e-05 0 -0.000256701 -1.36842e-05 0 -0.000255966 -1.5762e-05 0 -0.000255218 -1.78399e-05 0 -0.000254458 -1.99177e-05 0 -0.000253685 -2.19956e-05 0 -0.0002529 -2.40734e-05 0 -0.000252103 -2.61513e-05 0 -0.000251293 -2.82291e-05 0 -0.00025047 -3.0307e-05 0 -0.000249636 -3.23848e-05 0 -0.000248789 -3.44627e-05 0 -0.000247925 -3.65491e-05 0 -0.000247041 -3.86527e-05 0 -0.000246136 -4.07734e-05 0 -0.00024521 -4.29112e-05 0 -0.000244263 -4.50662e-05 0 -0.000243296 -4.72383e-05 0 -0.000242308 -4.94275e-05 0 -0.0002413 -5.16339e-05 0 -0.00024027 -5.38574e-05 0 -0.00023922 -5.6098e-05 0 -0.00023815 -5.83557e-05 0 -0.000237058 -6.06306e-05 0 -0.000235946 -6.29227e-05 0 -0.000234813 -6.52318e-05 0 -0.00023366 -6.75581e-05 0 -0.000232485 -6.99016e-05 0 -0.00023129 -7.22621e-05 0 -0.000230075 -7.46398e-05 0 -0.000228838 -7.70346e-05 0 -0.000227581 -7.94466e-05 0 -0.000226305 -8.18901e-05 0 -0.00022501 -8.43796e-05 0 -0.000223698 -8.6915e-05 0 -0.000222367 -8.94964e-05 0 -0.000221018 -9.21238e-05 0 -0.000219652 -9.47971e-05 0 -0.000218267 -9.75164e-05 0 -0.000216865 -0.000100282 0 -0.000215444 -0.000103093 0 -0.000214005 -0.00010595 0 -0.000212548 -0.000108853 0 -0.000211074 -0.000111802 0 -0.000209581 -0.000114798 0 -0.00020807 -0.000117839 0 -0.000206541 -0.000120926 0 -0.000204994 -0.000124059 0 -0.000203429 -0.000127238 0 -0.000201846 -0.000130462 0 -0.000200246 -0.000133733 0 -0.000198627 -0.00013705 0 -0.000277598 0.000103539 0 -0.00027728 0.000100674 0 -0.000276958 9.78349e-05 0 -0.000276631 9.50225e-05 0 -0.0002763 9.22365e-05 0 -0.000275964 8.9477e-05 0 -0.000275623 8.67439e-05 0 -0.000275278 8.40372e-05 0 -0.000274929 8.1357e-05 0 -0.000274575 7.87032e-05 0 -0.000274216 7.60759e-05 0 -0.000273853 7.34749e-05 0 -0.000273485 7.09005e-05 0 -0.000273113 6.83524e-05 0 -0.000272737 6.58308e-05 0 -0.000272355 6.33356e-05 0 -0.000271969 6.08669e-05 0 -0.000271579 5.84246e-05 0 -0.000271184 5.60087e-05 0 -0.000270785 5.36193e-05 0 -0.000270381 5.12563e-05 0 -0.000269969 4.89129e-05 0 -0.000269548 4.65825e-05 0 -0.000269116 4.4265e-05 0 -0.000268674 4.19603e-05 0 -0.000268221 3.96686e-05 0 -0.000267759 3.73897e-05 0 -0.000267286 3.51237e-05 0 -0.000266803 3.28707e-05 0 -0.000266309 3.06305e-05 0 -0.000265805 2.84032e-05 0 -0.000265291 2.61888e-05 0 -0.000264767 2.39873e-05 0 -0.000264233 2.17987e-05 0 -0.000263688 1.9623e-05 0 -0.000263133 1.74602e-05 0 -0.000262568 1.53103e-05 0 -0.000261992 1.31732e-05 0 -0.000261407 1.10491e-05 0 -0.000260811 8.93788e-06 0 -0.000260205 6.83954e-06 0 -0.000259587 4.74763e-06 0 -0.000258956 2.65569e-06 0 -0.000258313 5.63717e-07 0 -0.000257657 -1.52829e-06 0 -0.000256989 -3.62032e-06 0 -0.000256308 -5.71239e-06 0 -0.000255614 -7.80448e-06 0 -0.000254907 -9.89661e-06 0 -0.000254188 -1.19888e-05 0 -0.000253456 -1.4081e-05 0 -0.000252711 -1.61732e-05 0 -0.000251954 -1.82654e-05 0 -0.000251184 -2.03577e-05 0 -0.000250401 -2.245e-05 0 -0.000249605 -2.45424e-05 0 -0.000248797 -2.66348e-05 0 -0.000247976 -2.87272e-05 0 -0.000247142 -3.08196e-05 0 -0.000246296 -3.29121e-05 0 -0.000245437 -3.50046e-05 0 -0.000244561 -3.71057e-05 0 -0.000243664 -3.92241e-05 0 -0.000242747 -4.13597e-05 0 -0.000241808 -4.35125e-05 0 -0.000240848 -4.56825e-05 0 -0.000239868 -4.78698e-05 0 -0.000238866 -5.00743e-05 0 -0.000237843 -5.2296e-05 0 -0.0002368 -5.4535e-05 0 -0.000235735 -5.67911e-05 0 -0.00023465 -5.90645e-05 0 -0.000233544 -6.13552e-05 0 -0.000232416 -6.3663e-05 0 -0.000231268 -6.59881e-05 0 -0.000230099 -6.83304e-05 0 -0.000228909 -7.069e-05 0 -0.000227698 -7.30668e-05 0 -0.000226466 -7.54608e-05 0 -0.000225213 -7.7872e-05 0 -0.000223939 -8.03004e-05 0 -0.000222646 -8.27588e-05 0 -0.000221336 -8.52598e-05 0 -0.00022001 -8.78033e-05 0 -0.000218667 -9.03894e-05 0 -0.000217307 -9.30181e-05 0 -0.00021593 -9.56895e-05 0 -0.000214537 -9.84033e-05 0 -0.000213126 -0.00010116 0 -0.0002117 -0.000103959 0 -0.000210256 -0.000106801 0 -0.000208795 -0.000109685 0 -0.000207318 -0.000112612 0 -0.000205824 -0.000115581 0 -0.000204313 -0.000118593 0 -0.000202786 -0.000121648 0 -0.000201242 -0.000124745 0 -0.000199681 -0.000127885 0 -0.000198103 -0.000131067 0 -0.000196508 -0.000134292 0 -0.000194897 -0.000137559 0 -0.000274658 0.000103631 0 -0.000274334 0.000100765 0 -0.000274005 9.79243e-05 0 -0.000273673 9.51098e-05 0 -0.000273335 9.23213e-05 0 -0.000272994 8.95587e-05 0 -0.000272647 8.68221e-05 0 -0.000272296 8.41115e-05 0 -0.000271941 8.14269e-05 0 -0.000271582 7.87683e-05 0 -0.000271217 7.61356e-05 0 -0.000270849 7.35289e-05 0 -0.000270476 7.09482e-05 0 -0.000270098 6.83935e-05 0 -0.000269716 6.58648e-05 0 -0.000269329 6.3362e-05 0 -0.000268938 6.08852e-05 0 -0.000268543 5.84344e-05 0 -0.000268143 5.60095e-05 0 -0.000267739 5.36107e-05 0 -0.00026733 5.12378e-05 0 -0.000266913 4.88843e-05 0 -0.000266487 4.65434e-05 0 -0.00026605 4.42153e-05 0 -0.000265603 4.18999e-05 0 -0.000265145 3.95971e-05 0 -0.000264677 3.73071e-05 0 -0.000264199 3.50298e-05 0 -0.000263711 3.27651e-05 0 -0.000263212 3.05132e-05 0 -0.000262703 2.8274e-05 0 -0.000262183 2.60475e-05 0 -0.000261654 2.38337e-05 0 -0.000261114 2.16326e-05 0 -0.000260564 1.94441e-05 0 -0.000260003 1.72684e-05 0 -0.000259432 1.51054e-05 0 -0.000258851 1.29551e-05 0 -0.000258259 1.08175e-05 0 -0.000257658 8.69262e-06 0 -0.000257045 6.58042e-06 0 -0.000256422 4.47454e-06 0 -0.000255785 2.3686e-06 0 -0.000255135 2.62594e-07 0 -0.000254473 -1.84347e-06 0 -0.000253797 -3.9496e-06 0 -0.000253108 -6.05579e-06 0 -0.000252407 -8.16205e-06 0 -0.000251692 -1.02684e-05 0 -0.000250965 -1.23747e-05 0 -0.000250224 -1.44812e-05 0 -0.000249471 -1.65877e-05 0 -0.000248704 -1.86943e-05 0 -0.000247925 -2.08009e-05 0 -0.000247133 -2.29076e-05 0 -0.000246327 -2.50144e-05 0 -0.000245509 -2.71212e-05 0 -0.000244678 -2.92281e-05 0 -0.000243834 -3.1335e-05 0 -0.000242977 -3.3442e-05 0 -0.000242106 -3.55491e-05 0 -0.000241219 -3.76648e-05 0 -0.000240311 -3.97978e-05 0 -0.000239381 -4.19481e-05 0 -0.000238431 -4.41157e-05 0 -0.000237459 -4.63005e-05 0 -0.000236466 -4.85026e-05 0 -0.000235452 -5.0722e-05 0 -0.000234417 -5.29587e-05 0 -0.000233361 -5.52126e-05 0 -0.000232284 -5.74838e-05 0 -0.000231185 -5.97723e-05 0 -0.000230066 -6.20781e-05 0 -0.000228925 -6.44011e-05 0 -0.000227763 -6.67414e-05 0 -0.00022658 -6.9099e-05 0 -0.000225376 -7.14739e-05 0 -0.000224151 -7.3866e-05 0 -0.000222904 -7.62754e-05 0 -0.000221637 -7.87021e-05 0 -0.000220348 -8.11461e-05 0 -0.000219041 -8.36183e-05 0 -0.000217719 -8.61299e-05 0 -0.000216381 -8.86808e-05 0 -0.000215027 -9.1271e-05 0 -0.000213658 -9.39005e-05 0 -0.000212273 -9.65694e-05 0 -0.000210873 -9.92775e-05 0 -0.000209457 -0.000102025 0 -0.000208026 -0.000104812 0 -0.000206579 -0.000107638 0 -0.000205117 -0.000110503 0 -0.000203639 -0.000113408 0 -0.000202145 -0.000116352 0 -0.000200636 -0.000119336 0 -0.000199112 -0.000122358 0 -0.000197572 -0.00012542 0 -0.000196016 -0.000128522 0 -0.000194445 -0.000131662 0 -0.000192858 -0.000134842 0 -0.000191256 -0.000138061 0 -0.00027172 0.00010371 0 -0.00027139 0.000100843 0 -0.000271055 9.80008e-05 0 -0.000270717 9.51846e-05 0 -0.000270374 9.23938e-05 0 -0.000270026 8.96285e-05 0 -0.000269674 8.68888e-05 0 -0.000269318 8.41745e-05 0 -0.000268957 8.14858e-05 0 -0.000268592 7.88226e-05 0 -0.000268222 7.61849e-05 0 -0.000267848 7.35727e-05 0 -0.000267469 7.09861e-05 0 -0.000267087 6.84249e-05 0 -0.000266699 6.58893e-05 0 -0.000266308 6.33792e-05 0 -0.000265912 6.08946e-05 0 -0.000265511 5.84355e-05 0 -0.000265106 5.60019e-05 0 -0.000264697 5.35938e-05 0 -0.000264283 5.12113e-05 0 -0.000263862 4.88477e-05 0 -0.000263431 4.64967e-05 0 -0.000262989 4.41581e-05 0 -0.000262537 4.18321e-05 0 -0.000262074 3.95186e-05 0 -0.000261602 3.72176e-05 0 -0.000261118 3.49291e-05 0 -0.000260625 3.26531e-05 0 -0.000260121 3.03896e-05 0 -0.000259607 2.81386e-05 0 -0.000259082 2.59001e-05 0 -0.000258547 2.36742e-05 0 -0.000258002 2.14607e-05 0 -0.000257446 1.92597e-05 0 -0.000256881 1.70713e-05 0 -0.000256304 1.48953e-05 0 -0.000255718 1.27319e-05 0 -0.000255121 1.0581e-05 0 -0.000254513 8.44255e-06 0 -0.000253896 6.31664e-06 0 -0.000253266 4.19692e-06 0 -0.000252624 2.07711e-06 0 -0.000251968 -4.27989e-08 0 -0.000251299 -2.16281e-06 0 -0.000250616 -4.28291e-06 0 -0.000249921 -6.40311e-06 0 -0.000249212 -8.52341e-06 0 -0.00024849 -1.06438e-05 0 -0.000247755 -1.27643e-05 0 -0.000247007 -1.48849e-05 0 -0.000246245 -1.70056e-05 0 -0.00024547 -1.91264e-05 0 -0.000244682 -2.12473e-05 0 -0.000243881 -2.33682e-05 0 -0.000243067 -2.54893e-05 0 -0.000242239 -2.76105e-05 0 -0.000241399 -2.97318e-05 0 -0.000240545 -3.18532e-05 0 -0.000239677 -3.39746e-05 0 -0.000238797 -3.60962e-05 0 -0.000237899 -3.82264e-05 0 -0.000236981 -4.0374e-05 0 -0.00023604 -4.25388e-05 0 -0.000235079 -4.47209e-05 0 -0.000234097 -4.69202e-05 0 -0.000233093 -4.91368e-05 0 -0.000232068 -5.13707e-05 0 -0.000231022 -5.36219e-05 0 -0.000229954 -5.58904e-05 0 -0.000228865 -5.81761e-05 0 -0.000227755 -6.04791e-05 0 -0.000226624 -6.27994e-05 0 -0.000225472 -6.51369e-05 0 -0.000224298 -6.74918e-05 0 -0.000223103 -6.98639e-05 0 -0.000221887 -7.22532e-05 0 -0.00022065 -7.46599e-05 0 -0.000219391 -7.70838e-05 0 -0.000218111 -7.9525e-05 0 -0.00021681 -8.19835e-05 0 -0.000215492 -8.44687e-05 0 -0.000214158 -8.699e-05 0 -0.000212811 -8.95475e-05 0 -0.000211449 -9.21411e-05 0 -0.000210073 -9.47709e-05 0 -0.000208682 -9.74369e-05 0 -0.000207277 -0.000100139 0 -0.000205857 -0.000102877 0 -0.000204424 -0.000105652 0 -0.000202975 -0.000108462 0 -0.000201513 -0.000111309 0 -0.000200036 -0.000114192 0 -0.000198545 -0.000117111 0 -0.000197039 -0.000120066 0 -0.000195519 -0.000123057 0 -0.000193985 -0.000126085 0 -0.000192436 -0.000129148 0 -0.000190873 -0.000132248 0 -0.000189296 -0.000135384 0 -0.000187704 -0.000138556 0 -0.000268784 0.000103775 0 -0.000268448 0.000100907 0 -0.000268108 9.80645e-05 0 -0.000267763 9.52468e-05 0 -0.000267414 9.24541e-05 0 -0.000267061 8.96864e-05 0 -0.000266703 8.69438e-05 0 -0.000266342 8.42262e-05 0 -0.000265975 8.15337e-05 0 -0.000265605 7.88662e-05 0 -0.00026523 7.62238e-05 0 -0.00026485 7.36064e-05 0 -0.000264467 7.1014e-05 0 -0.000264079 6.84467e-05 0 -0.000263686 6.59044e-05 0 -0.00026329 6.33872e-05 0 -0.000262889 6.0895e-05 0 -0.000262483 5.84278e-05 0 -0.000262074 5.59857e-05 0 -0.00026166 5.35687e-05 0 -0.000261241 5.11767e-05 0 -0.000260816 4.88033e-05 0 -0.00026038 4.64423e-05 0 -0.000259933 4.40935e-05 0 -0.000259476 4.17571e-05 0 -0.000259009 3.9433e-05 0 -0.000258531 3.71212e-05 0 -0.000258043 3.48217e-05 0 -0.000257545 3.25345e-05 0 -0.000257036 3.02596e-05 0 -0.000256517 2.7997e-05 0 -0.000255988 2.57468e-05 0 -0.000255448 2.35088e-05 0 -0.000254898 2.12831e-05 0 -0.000254337 1.90698e-05 0 -0.000253766 1.68688e-05 0 -0.000253184 1.468e-05 0 -0.000252593 1.25036e-05 0 -0.000251991 1.03395e-05 0 -0.000251378 8.18769e-06 0 -0.000250755 6.04819e-06 0 -0.00025012 3.91477e-06 0 -0.000249472 1.78122e-06 0 -0.00024881 -3.52463e-07 0 -0.000248135 -2.48628e-06 0 -0.000247447 -4.62024e-06 0 -0.000246745 -6.75434e-06 0 -0.00024603 -8.88857e-06 0 -0.000245301 -1.10229e-05 0 -0.000244559 -1.31574e-05 0 -0.000243803 -1.52921e-05 0 -0.000243034 -1.74268e-05 0 -0.000242251 -1.95618e-05 0 -0.000241456 -2.16968e-05 0 -0.000240646 -2.3832e-05 0 -0.000239824 -2.59673e-05 0 -0.000238987 -2.81027e-05 0 -0.000238138 -3.02383e-05 0 -0.000237275 -3.23741e-05 0 -0.000236399 -3.45099e-05 0 -0.000235509 -3.66459e-05 0 -0.000234602 -3.87906e-05 0 -0.000233673 -4.09525e-05 0 -0.000232723 -4.31316e-05 0 -0.000231753 -4.5328e-05 0 -0.00023076 -4.75416e-05 0 -0.000229747 -4.97724e-05 0 -0.000228712 -5.20204e-05 0 -0.000227656 -5.42857e-05 0 -0.000226579 -5.65682e-05 0 -0.00022548 -5.88679e-05 0 -0.00022436 -6.11849e-05 0 -0.000223219 -6.3519e-05 0 -0.000222057 -6.58705e-05 0 -0.000220873 -6.82391e-05 0 -0.000219668 -7.06249e-05 0 -0.000218442 -7.3028e-05 0 -0.000217195 -7.54483e-05 0 -0.000215926 -7.78859e-05 0 -0.000214636 -8.03406e-05 0 -0.000213325 -8.28126e-05 0 -0.000211996 -8.53098e-05 0 -0.000210655 -8.784e-05 0 -0.0002093 -9.04034e-05 0 -0.000207931 -9.29998e-05 0 -0.00020655 -9.56293e-05 0 -0.000205155 -9.8292e-05 0 -0.000203747 -0.000100988 0 -0.000202326 -0.000103716 0 -0.000200892 -0.000106478 0 -0.000199444 -0.000109273 0 -0.000197983 -0.000112101 0 -0.000196509 -0.000114963 0 -0.000195022 -0.000117857 0 -0.000193521 -0.000120784 0 -0.000192008 -0.000123745 0 -0.000190481 -0.000126738 0 -0.00018894 -0.000129765 0 -0.000187387 -0.000132825 0 -0.00018582 -0.000135917 0 -0.00018424 -0.000139043 0 -0.00026585 0.000103827 0 -0.000265508 0.000100959 0 -0.000265162 9.81153e-05 0 -0.000264812 9.52964e-05 0 -0.000264458 9.25021e-05 0 -0.000264099 8.97324e-05 0 -0.000263736 8.69872e-05 0 -0.000263369 8.42666e-05 0 -0.000262997 8.15706e-05 0 -0.000262621 7.88991e-05 0 -0.000262241 7.62522e-05 0 -0.000261856 7.36298e-05 0 -0.000261468 7.1032e-05 0 -0.000261075 6.84588e-05 0 -0.000260678 6.59101e-05 0 -0.000260276 6.3386e-05 0 -0.00025987 6.08865e-05 0 -0.00025946 5.84115e-05 0 -0.000259046 5.59611e-05 0 -0.000258627 5.35353e-05 0 -0.000258204 5.1134e-05 0 -0.000257774 4.8751e-05 0 -0.000257334 4.63802e-05 0 -0.000256883 4.40215e-05 0 -0.000256421 4.16748e-05 0 -0.000255949 3.93403e-05 0 -0.000255467 3.70179e-05 0 -0.000254974 3.47076e-05 0 -0.000254471 3.24094e-05 0 -0.000253958 3.01233e-05 0 -0.000253434 2.78493e-05 0 -0.0002529 2.55874e-05 0 -0.000252355 2.33376e-05 0 -0.0002518 2.10999e-05 0 -0.000251235 1.88743e-05 0 -0.000250659 1.66608e-05 0 -0.000250073 1.44595e-05 0 -0.000249476 1.22702e-05 0 -0.000248869 1.00931e-05 0 -0.000248252 7.92802e-06 0 -0.000247624 5.77507e-06 0 -0.000246984 3.6281e-06 0 -0.000246331 1.48094e-06 0 -0.000245663 -6.66397e-07 0 -0.000244983 -2.81391e-06 0 -0.000244289 -4.9616e-06 0 -0.000243581 -7.10947e-06 0 -0.000242859 -9.25751e-06 0 -0.000242124 -1.14057e-05 0 -0.000241375 -1.35541e-05 0 -0.000240613 -1.57027e-05 0 -0.000239837 -1.78515e-05 0 -0.000239048 -2.00004e-05 0 -0.000238244 -2.21495e-05 0 -0.000237428 -2.42988e-05 0 -0.000236597 -2.64483e-05 0 -0.000235753 -2.85979e-05 0 -0.000234896 -3.07477e-05 0 -0.000234025 -3.28977e-05 0 -0.00023314 -3.50479e-05 0 -0.000232242 -3.71983e-05 0 -0.000231326 -3.93573e-05 0 -0.000230389 -4.15334e-05 0 -0.000229431 -4.37267e-05 0 -0.000228451 -4.59371e-05 0 -0.00022745 -4.81646e-05 0 -0.000226428 -5.04093e-05 0 -0.000225385 -5.26711e-05 0 -0.000224321 -5.495e-05 0 -0.000223235 -5.72461e-05 0 -0.000222128 -5.95593e-05 0 -0.000221 -6.18896e-05 0 -0.000219851 -6.42371e-05 0 -0.00021868 -6.66017e-05 0 -0.000217488 -6.89834e-05 0 -0.000216275 -7.13823e-05 0 -0.000215041 -7.37983e-05 0 -0.000213786 -7.62314e-05 0 -0.000212509 -7.86817e-05 0 -0.000211211 -8.11491e-05 0 -0.000209892 -8.36336e-05 0 -0.000208556 -8.61417e-05 0 -0.000207208 -8.868e-05 0 -0.000205848 -9.12485e-05 0 -0.000204475 -9.38471e-05 0 -0.000203091 -9.64758e-05 0 -0.000201694 -9.91346e-05 0 -0.000200285 -0.000101824 0 -0.000198864 -0.000104543 0 -0.000197431 -0.000107292 0 -0.000195986 -0.000110071 0 -0.000194529 -0.000112881 0 -0.000193059 -0.000115721 0 -0.000191577 -0.000118591 0 -0.000190083 -0.00012149 0 -0.000188577 -0.000124421 0 -0.000187059 -0.000127381 0 -0.000185529 -0.000130371 0 -0.000183987 -0.000133392 0 -0.000182432 -0.000136442 0 -0.000180865 -0.000139523 0 -0.000262919 0.000103865 0 -0.000262571 0.000100997 0 -0.00026222 9.81532e-05 0 -0.000261864 9.53336e-05 0 -0.000261504 9.2538e-05 0 -0.000261139 8.97665e-05 0 -0.000260771 8.7019e-05 0 -0.000260398 8.42957e-05 0 -0.000260022 8.15964e-05 0 -0.000259641 7.89212e-05 0 -0.000259255 7.62701e-05 0 -0.000258866 7.36431e-05 0 -0.000258472 7.10401e-05 0 -0.000258074 6.84612e-05 0 -0.000257672 6.59064e-05 0 -0.000257266 6.33757e-05 0 -0.000256856 6.08691e-05 0 -0.000256441 5.83865e-05 0 -0.000256022 5.5928e-05 0 -0.000255599 5.34936e-05 0 -0.000255172 5.10832e-05 0 -0.000254737 4.86909e-05 0 -0.000254292 4.63105e-05 0 -0.000253837 4.39419e-05 0 -0.000253371 4.15853e-05 0 -0.000252895 3.92405e-05 0 -0.000252408 3.69077e-05 0 -0.000251911 3.45867e-05 0 -0.000251404 3.22777e-05 0 -0.000250886 2.99805e-05 0 -0.000250358 2.76953e-05 0 -0.000249819 2.54219e-05 0 -0.00024927 2.31605e-05 0 -0.00024871 2.09109e-05 0 -0.00024814 1.86733e-05 0 -0.00024756 1.64475e-05 0 -0.000246969 1.42337e-05 0 -0.000246368 1.20317e-05 0 -0.000245756 9.8417e-06 0 -0.000245134 7.66355e-06 0 -0.000244502 5.4973e-06 0 -0.000243857 3.33689e-06 0 -0.000243199 1.17625e-06 0 -0.000242527 -9.84602e-07 0 -0.000241841 -3.14568e-06 0 -0.000241141 -5.30698e-06 0 -0.000240428 -7.46851e-06 0 -0.000239701 -9.63025e-06 0 -0.00023896 -1.17922e-05 0 -0.000238205 -1.39544e-05 0 -0.000237437 -1.61168e-05 0 -0.000236655 -1.82795e-05 0 -0.000235859 -2.04423e-05 0 -0.000235049 -2.26054e-05 0 -0.000234226 -2.47687e-05 0 -0.000233388 -2.69322e-05 0 -0.000232537 -2.9096e-05 0 -0.000231673 -3.126e-05 0 -0.000230794 -3.34242e-05 0 -0.000229902 -3.55886e-05 0 -0.000228996 -3.77532e-05 0 -0.000228072 -3.99265e-05 0 -0.000227127 -4.21167e-05 0 -0.000226162 -4.43239e-05 0 -0.000225175 -4.65481e-05 0 -0.000224167 -4.87893e-05 0 -0.000223138 -5.10475e-05 0 -0.000222087 -5.33227e-05 0 -0.000221016 -5.56149e-05 0 -0.000219923 -5.79241e-05 0 -0.00021881 -6.02502e-05 0 -0.000217675 -6.25934e-05 0 -0.000216519 -6.49535e-05 0 -0.000215342 -6.73307e-05 0 -0.000214144 -6.97248e-05 0 -0.000212924 -7.21359e-05 0 -0.000211684 -7.4564e-05 0 -0.000210422 -7.70091