<?xml version="1.0"?> 
<VTKFile type="StructuredGrid" version="0.1"> 
<StructuredGrid WholeExtent="0 200 0 200 0 0"> 
<Piece Extent="0 200 0 200 0 0"> 
<PointData Scalars="Stress components">
<DataArray type="Float32" Name="sigma_xx" format="ascii" NumberOfComponents="1"> 
1.04647 1.04005 1.03379 1.02768 1.02173 1.01594 1.0103 1.00482 0.999495 0.994327 0.989314 0.984459 0.979759 0.975216 0.970829 0.966599 0.962525 0.958608 0.954847 0.951242 0.947794 0.944502 0.941366 0.938387 0.935564 0.932898 0.930388 0.928035 0.925838 0.923797 0.921912 0.920184 0.918613 0.917198 0.915939 0.914837 0.913891 0.913101 0.912468 0.911991 0.911671 0.902905 0.894212 0.885592 0.877046 0.868573 0.860173 0.851846 0.843592 0.835412 0.827304 0.81927 0.811309 0.803422 0.795607 0.787866 0.780198 0.772603 0.765081 0.757632 0.750257 0.742955 0.735726 0.72857 0.721487 0.714478 0.707541 0.700678 0.693888 0.687172 0.680528 0.673958 0.667461 0.661037 0.654686 0.648409 0.642204 0.636073 0.630015 0.62403 0.618119 0.610742 0.60334 0.595914 0.588464 0.580989 0.573489 0.565965 0.558416 0.550842 0.543244 0.535622 0.527974 0.520303 0.512606 0.504885 0.49714 0.48937 0.481575 0.473756 0.465912 0.458043 0.45015 0.442233 0.43429 0.426324 0.418332 0.410316 0.402276 0.39421 0.386121 0.378006 0.369868 0.361704 0.353516 0.345303 0.337066 0.328804 0.320518 0.312207 0.303871 0.299387 0.294817 0.290163 0.285423 0.280598 0.275688 0.270693 0.265613 0.260448 0.255197 0.249862 0.244441 0.238936 0.233345 0.227669 0.221908 0.216062 0.210131 0.204114 0.198013 0.191827 0.185555 0.179198 0.172757 0.16623 0.159618 0.152921 0.146138 0.139271 0.132319 0.125281 0.118159 0.110951 0.103658 0.0962801 0.0888171 0.081269 0.0736358 0.0659175 0.0581141 0.0583764 0.0585129 0.0585238 0.0584089 0.0581683 0.057802 0.05731 0.0566922 0.0559488 0.0550796 0.0540847 0.0529641 0.0517178 0.0503457 0.048848 0.0472245 0.0454753 0.0436003 0.0415997 0.0394733 0.0372213 0.0348435 0.03234 0.0297107 0.0269558 0.0240751 0.0210687 0.0179366 0.0146788 0.0112953 0.00778603 0.00415105 0.000390361 -0.00349605 -0.00750818 -0.011646 -0.0159096 -0.0202989 -0.0248139 -0.0294546 1.0454 1.03899 1.03273 1.02663 1.02069 1.0149 1.00927 1.00379 0.998472 0.993309 0.988303 0.983454 0.978761 0.974225 0.969845 0.965621 0.961554 0.957644 0.95389 0.950292 0.946851 0.943566 0.940438 0.937466 0.93465 0.931991 0.929489 0.927143 0.924953 0.92292 0.921044 0.919323 0.91776 0.916352 0.915102 0.914007 0.913069 0.912288 0.911663 0.911195 0.910882 0.902147 0.893484 0.884894 0.876377 0.867932 0.859561 0.851263 0.843037 0.834885 0.826805 0.818798 0.810864 0.803003 0.795215 0.7875 0.779858 0.772288 0.764792 0.757368 0.750018 0.74274 0.735535 0.728403 0.721344 0.714358 0.707445 0.700605 0.693837 0.687143 0.680521 0.673973 0.667497 0.661094 0.654764 0.648507 0.642323 0.636212 0.630173 0.624208 0.618315 0.610922 0.603505 0.596064 0.588598 0.581108 0.573593 0.566055 0.558491 0.550904 0.543292 0.535656 0.527995 0.52031 0.512601 0.504867 0.497109 0.489327 0.481521 0.47369 0.465834 0.457954 0.45005 0.442122 0.434169 0.426192 0.418191 0.410165 0.402115 0.39404 0.385941 0.377818 0.369671 0.361499 0.353303 0.345082 0.336837 0.328568 0.320274 0.311956 0.303614 0.299173 0.294646 0.290034 0.285336 0.280552 0.275683 0.270729 0.265688 0.260562 0.255351 0.250054 0.244671 0.239203 0.233649 0.228009 0.222284 0.216474 0.210577 0.204595 0.198528 0.192375 0.186136 0.179812 0.173402 0.166907 0.160325 0.153659 0.146907 0.140069 0.133145 0.126136 0.119042 0.111861 0.104595 0.097244 0.0898069 0.0822843 0.074676 0.0669822 0.0592028 0.0594311 0.0595337 0.0595106 0.0593618 0.0590872 0.0586869 0.0581609 0.0575092 0.0567317 0.0558285 0.0547995 0.0536448 0.0523644 0.0509583 0.0494264 0.0477688 0.0459855 0.0440764 0.0420417 0.0398811 0.0375949 0.0351829 0.0326452 0.0299818 0.0271926 0.0242777 0.0212371 0.0180707 0.0147786 0.0113608 0.00781725 0.00414797 0.000352956 -0.00356778 -0.00761426 -0.0117865 -0.0160844 -0.0205081 -0.0250574 -0.0297326 1.04439 1.03799 1.03173 1.02564 1.0197 1.01392 1.00829 1.00282 0.997509 0.992353 0.987353 0.98251 0.977823 0.973293 0.968919 0.964702 0.960641 0.956737 0.952989 0.949398 0.945963 0.942685 0.939564 0.936599 0.93379 0.931138 0.928643 0.926304 0.924121 0.922095 0.920226 0.918513 0.916957 0.915557 0.914314 0.913227 0.912296 0.911523 0.910906 0.910445 0.910141 0.901434 0.892799 0.884238 0.875749 0.867332 0.858988 0.850717 0.842518 0.834392 0.826339 0.818358 0.81045 0.802615 0.794852 0.787161 0.779544 0.771999 0.764526 0.757126 0.749799 0.742545 0.735363 0.728254 0.721217 0.714253 0.707361 0.700543 0.693796 0.687123 0.680522 0.673994 0.667538 0.661155 0.654844 0.648606 0.642441 0.636349 0.630329 0.624381 0.618507 0.611098 0.603666 0.59621 0.588729 0.581224 0.573696 0.566143 0.558566 0.550965 0.54334 0.53569 0.528017 0.520319 0.512598 0.504852 0.497082 0.489288 0.48147 0.473628 0.465761 0.457871 0.449956 0.442018 0.434055 0.426068 0.418057 0.410022 0.401963 0.393879 0.385772 0.37764 0.369485 0.361305 0.353101 0.344873 0.336621 0.328345 0.320044 0.31172 0.303371 0.298971 0.294486 0.289913 0.285255 0.280511 0.275681 0.270764 0.265762 0.260673 0.255498 0.250237 0.244891 0.239458 0.233938 0.228333 0.222642 0.216865 0.211001 0.205052 0.199016 0.192894 0.186686 0.180392 0.174012 0.167546 0.160994 0.154356 0.147631 0.140821 0.133924 0.126941 0.119873 0.112718 0.105477 0.0981497 0.0907365 0.0832373 0.0756519 0.0679805 0.0602229 0.0604192 0.0604898 0.0604346 0.0602537 0.059947 0.0595146 0.0589564 0.0582725 0.0574629 0.0565275 0.0554664 0.0542795 0.0529669 0.0515286 0.0499645 0.0482746 0.046459 0.0445177 0.0424507 0.0402579 0.0379393 0.035495 0.032925 0.0302292 0.0274077 0.0244604 0.0213874 0.0181887 0.0148642 0.0114139 0.00783797 0.00413625 0.000308793 -0.00364441 -0.00772335 -0.011928 -0.0162585 -0.0207146 -0.0252966 -0.0300042 1.04345 1.03705 1.0308 1.02471 1.01878 1.013 1.00738 1.00192 0.996608 0.991457 0.986463 0.981625 0.976944 0.972419 0.968051 0.96384 0.959785 0.955887 0.952145 0.94856 0.945132 0.94186 0.938744 0.935786 0.932984 0.930338 0.927849 0.925517 0.923341 0.921322 0.919459 0.917753 0.916204 0.914811 0.913575 0.912495 0.911572 0.910805 0.910195 0.909742 0.909445 0.900766 0.892159 0.883624 0.875162 0.866772 0.858454 0.850208 0.842035 0.833935 0.825906 0.81795 0.810067 0.802255 0.794516 0.78685 0.779255 0.771733 0.764284 0.756906 0.749601 0.742369 0.735208 0.728121 0.721105 0.714162 0.707291 0.700492 0.693766 0.687112 0.68053 0.674021 0.667584 0.661219 0.654927 0.648707 0.64256 0.636485 0.630482 0.624551 0.618693 0.61127 0.603823 0.596352 0.588857 0.581338 0.573796 0.566229 0.558639 0.551025 0.543387 0.535725 0.528039 0.520329 0.512596 0.504838 0.497057 0.489252 0.481423 0.47357 0.465693 0.457793 0.449868 0.44192 0.433947 0.425951 0.417931 0.409887 0.401819 0.393728 0.385612 0.377473 0.369309 0.361122 0.352911 0.344676 0.336417 0.328135 0.319828 0.311498 0.303143 0.298783 0.294335 0.289801 0.285181 0.280474 0.27568 0.2708 0.265833 0.26078 0.25564 0.250413 0.2451 0.2397 0.234214 0.228641 0.222981 0.217235 0.211402 0.205483 0.199477 0.193384 0.187205 0.18094 0.174587 0.168148 0.161623 0.155011 0.148312 0.141527 0.134655 0.127697 0.120652 0.11352 0.106302 0.0989973 0.0916059 0.084128 0.0765634 0.0689123 0.0611746 0.0613407 0.0613811 0.0612957 0.0610845 0.0607476 0.060285 0.0596966 0.0589824 0.0581425 0.0571768 0.0560853 0.0548682 0.0535252 0.0520565 0.0504621 0.0487419 0.0468959 0.0449242 0.0428267 0.0406035 0.0382545 0.0357798 0.0331793 0.030453 0.027601 0.0246233 0.0215198 0.0182905 0.0149355 0.0114547 0.00784819 0.00411591 0.000257871 -0.00372592 -0.00783547 -0.0120708 -0.0164318 -0.0209186 -0.0255312 -0.0302695 1.04257 1.03618 1.02993 1.02385 1.01792 1.01215 1.00653 1.00107 0.995768 0.990622 0.985633 0.9808 0.976124 0.971605 0.967242 0.963036 0.958987 0.955094 0.951358 0.947778 0.944356 0.94109 0.93798 0.935027 0.932231 0.929591 0.927109 0.924782 0.922613 0.9206 0.918743 0.917044 0.915501 0.914114 0.912885 0.911812 0.910895 0.910135 0.909532 0.909086 0.908796 0.900143 0.891562 0.883053 0.874616 0.866251 0.857958 0.849737 0.841589 0.833512 0.825507 0.817575 0.809714 0.801926 0.794209 0.786565 0.778993 0.771493 0.764064 0.756708 0.749424 0.742212 0.735072 0.728004 0.721008 0.714085 0.707233 0.700453 0.693745 0.68711 0.680546 0.674055 0.667635 0.661288 0.655013 0.648809 0.642678 0.636619 0.630632 0.624717 0.618874 0.611436 0.603975 0.59649 0.588982 0.581449 0.573894 0.566314 0.558711 0.551084 0.543434 0.53576 0.528062 0.520341 0.512596 0.504827 0.497035 0.489219 0.48138 0.473517 0.46563 0.457719 0.449785 0.441828 0.433846 0.425841 0.417813 0.40976 0.401685 0.393585 0.385462 0.377315 0.369145 0.36095 0.352733 0.344491 0.336226 0.327938 0.319625 0.311289 0.30293 0.298606 0.294195 0.289698 0.285113 0.280441 0.275682 0.270836 0.265902 0.260882 0.255775 0.25058 0.245299 0.23993 0.234474 0.228931 0.223301 0.217584 0.21178 0.205889 0.199911 0.193846 0.187693 0.181454 0.175127 0.168713 0.162213 0.155625 0.14895 0.142188 0.135339 0.128402 0.121379 0.114269 0.107071 0.0997868 0.0924151 0.0849564 0.0774106 0.0697777 0.0620578 0.0621956 0.0622076 0.0620939 0.0618544 0.0614891 0.0609981 0.0603813 0.0596387 0.0587703 0.0577762 0.0566564 0.0554107 0.0540393 0.0525422 0.0509192 0.0491705 0.047296 0.0452958 0.0431698 0.040918 0.0385405 0.0360372 0.0334081 0.0306533 0.0277727 0.0247663 0.0216341 0.0183762 0.0149926 0.0114831 0.00784791 0.00408693 0.00020019 -0.00381232 -0.0079506 -0.0122146 -0.0166044 -0.02112 -0.0257614 -0.0305285 1.04176 1.03537 1.02913 1.02305 1.01712 1.01135 1.00574 1.00029 0.99499 0.989848 0.984863 0.980035 0.975364 0.97085 0.966492 0.962291 0.958246 0.954358 0.950627 0.947053 0.943635 0.940375 0.93727 0.934323 0.931532 0.928898 0.926421 0.9241 0.921936 0.919929 0.918079 0.916385 0.914848 0.913468 0.912244 0.911177 0.910267 0.909513 0.908917 0.908477 0.908193 0.899565 0.891009 0.882524 0.874111 0.86577 0.857501 0.849304 0.841178 0.833124 0.825142 0.817231 0.809393 0.801626 0.793931 0.786307 0.778756 0.771276 0.763868 0.756532 0.749267 0.742075 0.734954 0.727905 0.720927 0.714022 0.707188 0.700426 0.693735 0.687117 0.68057 0.674095 0.667692 0.66136 0.655101 0.648913 0.642797 0.636752 0.63078 0.624879 0.61905 0.611598 0.604123 0.596625 0.589103 0.581558 0.573989 0.566397 0.558782 0.551143 0.543481 0.535795 0.528086 0.520354 0.512598 0.504818 0.497016 0.48919 0.48134 0.473467 0.465571 0.457651 0.449708 0.441742 0.433752 0.425739 0.417702 0.409642 0.401558 0.393452 0.385321 0.377168 0.36899 0.36079 0.352566 0.344319 0.336048 0.327754 0.319436 0.311095 0.302731 0.298442 0.294066 0.289602 0.285051 0.280412 0.275686 0.270871 0.26597 0.26098 0.255904 0.250739 0.245487 0.240148 0.23472 0.229206 0.223603 0.217913 0.212136 0.206271 0.200318 0.194278 0.18815 0.181934 0.175631 0.169241 0.162763 0.156197 0.149544 0.142803 0.135974 0.129058 0.122055 0.114963 0.107785 0.100518 0.0931642 0.0857226 0.0781935 0.0705767 0.0628724 0.0629838 0.0629694 0.0628292 0.0625632 0.0621714 0.0616539 0.0610106 0.0602415 0.0593466 0.0583259 0.0571795 0.0559073 0.0545093 0.0529855 0.0513359 0.0495606 0.0476595 0.0456326 0.0434799 0.0412015 0.0387973 0.0362672 0.0336115 0.0308299 0.0279226 0.0248894 0.0217305 0.0184458 0.0150354 0.0114991 0.00783712 0.00404933 0.00013575 -0.00390361 -0.00806874 -0.0123597 -0.0167763 -0.0213188 -0.0259871 -0.0307811 1.04102 1.03462 1.02839 1.02231 1.01639 1.01063 1.00502 0.999567 0.994272 0.989135 0.984154 0.979331 0.974663 0.970153 0.9658 0.961603 0.957563 0.95368 0.949953 0.946384 0.942971 0.939715 0.936616 0.933673 0.930887 0.928258 0.925786 0.923471 0.921312 0.91931 0.917465 0.915777 0.914245 0.91287 0.911652 0.910591 0.909687 0.908939 0.908348 0.907914 0.907637 0.899032 0.890499 0.882038 0.873648 0.86533 0.857083 0.848907 0.840803 0.832771 0.82481 0.81692 0.809102 0.801355 0.79368 0.786077 0.778545 0.771084 0.763695 0.756377 0.749131 0.741957 0.734853 0.727822 0.720861 0.713973 0.707156 0.70041 0.693736 0.687133 0.680601 0.674142 0.667753 0.661437 0.655191 0.649017 0.642915 0.636884 0.630925 0.625037 0.61922 0.611755 0.604267 0.596756 0.589221 0.581663 0.574083 0.566478 0.558851 0.551201 0.543527 0.53583 0.528111 0.520367 0.512601 0.504812 0.496999 0.489163 0.481305 0.473422 0.465517 0.457589 0.449637 0.441662 0.433665 0.425643 0.417599 0.409532 0.401441 0.393327 0.38519 0.37703 0.368847 0.360641 0.352411 0.344158 0.335882 0.327583 0.319261 0.310915 0.302547 0.298291 0.293947 0.289516 0.284996 0.280388 0.275691 0.270907 0.266035 0.261075 0.256026 0.25089 0.245665 0.240353 0.234952 0.229463 0.223886 0.218221 0.212468 0.206627 0.200698 0.194681 0.188576 0.182382 0.176101 0.169731 0.163274 0.156728 0.150094 0.143372 0.136562 0.129664 0.122678 0.115604 0.108442 0.101191 0.093853 0.0864265 0.0789119 0.0713093 0.0636186 0.0637054 0.0636664 0.0635016 0.063211 0.0627946 0.0622524 0.0615844 0.0607907 0.0598711 0.0588258 0.0576547 0.0563577 0.054935 0.0533865 0.0517122 0.0499121 0.0479862 0.0459346 0.0437571 0.0414539 0.0390248 0.03647 0.0337894 0.0309829 0.0280507 0.0249927 0.0218089 0.0184993 0.015064 0.0115028 0.00781584 0.00400309 6.45507e-05 -0.00399978 -0.0081899 -0.0125058 -0.0169475 -0.021515 -0.0262083 -0.0310274 1.04033 1.03394 1.02771 1.02164 1.01572 1.00996 1.00435 0.998907 0.993617 0.988483 0.983506 0.978686 0.974022 0.969516 0.965166 0.960973 0.956937 0.953058 0.949336 0.945771 0.942362 0.93911 0.936015 0.933077 0.930296 0.927672 0.925204 0.922893 0.92074 0.918743 0.916902 0.915219 0.913692 0.912323 0.91111 0.910054 0.909155 0.908413 0.907827 0.907398 0.907127 0.898545 0.890034 0.881594 0.873226 0.864929 0.856703 0.848548 0.840464 0.832452 0.824511 0.816641 0.808842 0.801115 0.793458 0.785873 0.778359 0.770917 0.763545 0.756245 0.749016 0.741858 0.734771 0.727755 0.720811 0.713938 0.707136 0.700405 0.693746 0.687158 0.680641 0.674195 0.66782 0.661517 0.655284 0.649123 0.643033 0.637015 0.631067 0.625191 0.619386 0.611908 0.604407 0.596883 0.589336 0.581766 0.574174 0.566558 0.55892 0.551258 0.543574 0.535866 0.528136 0.520383 0.512607 0.504807 0.496985 0.48914 0.481273 0.473382 0.465468 0.457531 0.449572 0.441589 0.433584 0.425555 0.417504 0.40943 0.401332 0.393212 0.385069 0.376903 0.368714 0.360502 0.352268 0.34401 0.335729 0.327426 0.319099 0.31075 0.302377 0.298152 0.293839 0.289437 0.284946 0.280367 0.2757 0.270943 0.266098 0.261165 0.256143 0.251032 0.245833 0.240546 0.235169 0.229704 0.224151 0.218509 0.212778 0.206959 0.201051 0.195055 0.18897 0.182797 0.176535 0.170184 0.163745 0.157217 0.150601 0.143896 0.137102 0.13022 0.12325 0.116191 0.109043 0.101807 0.0944816 0.0870681 0.0795661 0.0719754 0.0642962 0.0643603 0.0642986 0.0641111 0.0637977 0.0633586 0.0627937 0.0621029 0.0612864 0.060344 0.0592759 0.0580819 0.0567622 0.0553166 0.0537452 0.0520481 0.0502251 0.0482763 0.0462017 0.0440013 0.0416752 0.0392232 0.0366454 0.0339418 0.0311124 0.0281572 0.0250762 0.0218693 0.0185367 0.0150783 0.0114941 0.00778406 0.00394823 -1.34072e-05 -0.00410084 -0.00831408 -0.0126531 -0.017118 -0.0217086 -0.0264251 -0.0312673 1.03972 1.03333 1.0271 1.02103 1.01511 1.00936 1.00375 0.99831 0.993022 0.987891 0.982918 0.978101 0.973441 0.968937 0.964591 0.960402 0.95637 0.952494 0.948775 0.945214 0.941809 0.938561 0.93547 0.932536 0.929759 0.927139 0.924675 0.922369 0.920219 0.918226 0.916391 0.914712 0.91319 0.911825 0.910617 0.909565 0.908671 0.907934 0.907353 0.90693 0.906663 0.898102 0.889612 0.881193 0.872845 0.864568 0.856361 0.848226 0.840162 0.832168 0.824246 0.816394 0.808613 0.800903 0.793265 0.785697 0.7782 0.770773 0.763418 0.756134 0.748921 0.741778 0.734707 0.727706 0.720776 0.713918 0.70713 0.700413 0.693767 0.687192 0.680687 0.674254 0.667892 0.6616 0.65538 0.64923 0.643152 0.637144 0.631207 0.625341 0.619546 0.612056 0.604543 0.597007 0.589448 0.581867 0.574263 0.566636 0.558987 0.551314 0.54362 0.535902 0.528162 0.520399 0.512614 0.504805 0.496974 0.489121 0.481244 0.473345 0.465424 0.457479 0.449512 0.441522 0.43351 0.425474 0.417416 0.409336 0.401232 0.393106 0.384958 0.376786 0.368592 0.360375 0.352136 0.343874 0.335589 0.327281 0.318951 0.310598 0.302222 0.298026 0.293741 0.289367 0.284904 0.280351 0.27571 0.270979 0.26616 0.261251 0.256253 0.251167 0.245991 0.240726 0.235372 0.229929 0.224397 0.218776 0.213065 0.207266 0.201378 0.1954 0.189334 0.183178 0.176933 0.1706 0.164177 0.157665 0.151064 0.144374 0.137595 0.130727 0.12377 0.116723 0.109588 0.102364 0.0950501 0.0876475 0.0801559 0.0725752 0.0649054 0.0649486 0.0648661 0.0646577 0.0643235 0.0638635 0.0632776 0.062566 0.0617285 0.0607653 0.0596762 0.0584613 0.0571205 0.055654 0.0540616 0.0523435 0.0504995 0.0485297 0.046434 0.0442126 0.0418654 0.0393923 0.0367934 0.0340687 0.0312182 0.0282419 0.0251397 0.0219118 0.018558 0.0150784 0.011473 0.00774177 0.00388473 -9.81239e-05 -0.00420679 -0.00844128 -0.0128016 -0.0172877 -0.0218996 -0.0266374 -0.0315009 1.03916 1.03278 1.02655 1.02048 1.01457 1.00881 1.00322 0.997774 0.992489 0.987361 0.98239 0.977575 0.972918 0.968418 0.964075 0.959889 0.955859 0.951987 0.948271 0.944713 0.941312 0.938067 0.93498 0.932049 0.929275 0.926659 0.924199 0.921896 0.919751 0.917762 0.91593 0.914255 0.912737 0.911377 0.910173 0.909126 0.908236 0.907503 0.906927 0.906507 0.906245 0.897704 0.889234 0.880834 0.872505 0.864247 0.856059 0.847942 0.839895 0.831919 0.824014 0.816179 0.808415 0.800722 0.793099 0.785547 0.778066 0.770655 0.763315 0.756045 0.748846 0.741718 0.73466 0.727673 0.720757 0.713911 0.707136 0.700432 0.693798 0.687235 0.680742 0.67432 0.667969 0.661688 0.655478 0.649339 0.64327 0.637272 0.631344 0.625488 0.619701 0.612199 0.604674 0.597127 0.589557 0.581964 0.574349 0.566712 0.559052 0.55137 0.543666 0.535938 0.528189 0.520417 0.512622 0.504805 0.496966 0.489104 0.48122 0.473313 0.465384 0.457432 0.449458 0.441461 0.433442 0.425401 0.417337 0.40925 0.401141 0.39301 0.384856 0.37668 0.368481 0.36026 0.352016 0.34375 0.335461 0.32715 0.318817 0.310461 0.302082 0.297913 0.293654 0.289305 0.284867 0.28034 0.275722 0.271016 0.266219 0.261333 0.256358 0.251293 0.246138 0.240894 0.23556 0.230137 0.224624 0.219022 0.21333 0.207548 0.201677 0.195716 0.189666 0.183526 0.177297 0.170978 0.164569 0.158071 0.151484 0.144807 0.13804 0.131183 0.124238 0.117202 0.110077 0.102862 0.0955583 0.0881646 0.0806813 0.0731084 0.065446 0.0654703 0.0653688 0.0651414 0.0647882 0.0643092 0.0637043 0.0629737 0.0621172 0.0611348 0.0600267 0.0587927 0.0574328 0.0559472 0.0543357 0.0525984 0.0507353 0.0487463 0.0466315 0.0443909 0.0420245 0.0395322 0.0369141 0.0341702 0.0313004 0.0283049 0.0251835 0.0219362 0.0185631 0.0150643 0.0114395 0.00768898 0.00381261 -0.0001896 -0.00431763 -0.00857149 -0.0129512 -0.0174567 -0.022088 -0.0268452 -0.0317282 1.03868 1.0323 1.02607 1.02 1.01409 1.00834 1.00274 0.9973 0.992017 0.986891 0.981922 0.97711 0.972455 0.967958 0.963617 0.959433 0.955406 0.951537 0.947824 0.944268 0.94087 0.937628 0.934544 0.931616 0.928846 0.926232 0.923776 0.921476 0.919334 0.917349 0.91552 0.913849 0.912335 0.910978 0.909778 0.908734 0.907848 0.907119 0.906547 0.906132 0.905874 0.897352 0.8889 0.880518 0.872207 0.863965 0.855795 0.847694 0.839664 0.831705 0.823816 0.815997 0.808248 0.80057 0.792962 0.785425 0.777957 0.770561 0.763234 0.755978 0.748792 0.741677 0.734632 0.727657 0.720753 0.713919 0.707155 0.700462 0.693839 0.687286 0.680804 0.674392 0.668051 0.66178 0.655579 0.649448 0.643388 0.637399 0.631479 0.62563 0.619851 0.612337 0.604801 0.597243 0.589662 0.582059 0.574434 0.566787 0.559117 0.551425 0.543711 0.535975 0.528217 0.520436 0.512633 0.504808 0.49696 0.489091 0.481199 0.473285 0.465349 0.45739 0.44941 0.441407 0.433381 0.425334 0.417264 0.409173 0.401059 0.392922 0.384764 0.376583 0.36838 0.360155 0.351908 0.343638 0.335346 0.327032 0.318696 0.310337 0.301956 0.297812 0.293577 0.289252 0.284837 0.280332 0.275737 0.271052 0.266277 0.261411 0.256456 0.251411 0.246275 0.24105 0.235734 0.230329 0.224833 0.219247 0.213571 0.207805 0.201949 0.196004 0.189967 0.183841 0.177625 0.171319 0.164923 0.158436 0.15186 0.145193 0.138437 0.13159 0.124654 0.117627 0.11051 0.103303 0.0960064 0.0886194 0.0811424 0.0735753 0.0659182 0.0659254 0.0658067 0.0655622 0.0651919 0.0646958 0.0640738 0.0633259 0.0624522 0.0614527 0.0603274 0.0590762 0.0576991 0.0561962 0.0545675 0.0528129 0.0509325 0.0489263 0.0467942 0.0445363 0.0421525 0.0396429 0.0370075 0.0342462 0.0313591 0.0283461 0.0252073 0.0219427 0.0185522 0.0150359 0.0113937 0.00762569 0.00373185 -0.000287834 -0.00443336 -0.00870472 -0.0131019 -0.017625 -0.0222739 -0.0270486 -0.0319492 1.03826 1.03187 1.02565 1.01958 1.01367 1.00792 1.00233 0.996888 0.991607 0.986482 0.981515 0.976705 0.972052 0.967556 0.963217 0.959036 0.955011 0.951144 0.947433 0.94388 0.940484 0.937245 0.934163 0.931238 0.92847 0.925859 0.923406 0.921109 0.91897 0.916987 0.915162 0.913494 0.911983 0.910629 0.909432 0.908392 0.907509 0.906784 0.906215 0.905804 0.905549 0.897044 0.888609 0.880244 0.871949 0.863724 0.855569 0.847485 0.83947 0.831525 0.823651 0.815846 0.808112 0.800447 0.792853 0.785329 0.777875 0.770491 0.763177 0.755933 0.748759 0.741655 0.734621 0.727658 0.720764 0.713941 0.707187 0.700504 0.693891 0.687347 0.680874 0.674471 0.668138 0.661875 0.655682 0.649559 0.643507 0.637524 0.631611 0.625769 0.619996 0.612471 0.604924 0.597355 0.589764 0.582151 0.574516 0.566859 0.55918 0.55148 0.543757 0.536012 0.528245 0.520456 0.512645 0.504812 0.496958 0.489081 0.481182 0.473261 0.465318 0.457354 0.449367 0.441358 0.433327 0.425275 0.4172 0.409103 0.400985 0.392844 0.384681 0.376497 0.36829 0.360061 0.351811 0.343538 0.335244 0.326927 0.318589 0.310228 0.301845 0.297723 0.29351 0.289207 0.284813 0.280329 0.275754 0.271088 0.266332 0.261485 0.256548 0.25152 0.246402 0.241193 0.235894 0.230503 0.225023 0.219452 0.21379 0.208038 0.202195 0.196262 0.190238 0.184123 0.177918 0.171623 0.165236 0.15876 0.152192 0.145535 0.138786 0.131947 0.125018 0.117998 0.110887 0.103686 0.0963942 0.089012 0.0815391 0.0739757 0.0663218 0.0663138 0.0661799 0.0659202 0.0655346 0.0650232 0.0643859 0.0636228 0.0627338 0.0617189 0.0605783 0.0593117 0.0579193 0.0564011 0.054757 0.052987 0.0510912 0.0490696 0.0469221 0.0446487 0.0422495 0.0397244 0.0370735 0.0342967 0.0313941 0.0283656 0.0252113 0.0219311 0.0185251 0.0149932 0.0113355 0.00755191 0.00364247 -0.000392828 -0.00455397 -0.00884097 -0.0132538 -0.0177925 -0.0224571 -0.0272475 -0.0321637 1.0379 1.03152 1.0253 1.01923 1.01332 1.00757 1.00197 0.996537 0.991257 0.986134 0.981168 0.97636 0.971708 0.967214 0.962877 0.958697 0.954674 0.950808 0.947099 0.943548 0.940154 0.936916 0.933836 0.930914 0.928148 0.925539 0.923088 0.920794 0.918657 0.916677 0.914854 0.913189 0.91168 0.910329 0.909135 0.908098 0.907218 0.906496 0.90593 0.905522 0.905271 0.896782 0.888362 0.880013 0.871733 0.863523 0.855383 0.847312 0.839311 0.83138 0.823519 0.815728 0.808006 0.800355 0.792773 0.78526 0.777818 0.770445 0.763143 0.75591 0.748746 0.741653 0.734629 0.727675 0.720791 0.713977 0.707232 0.700557 0.693952 0.687417 0.680952 0.674556 0.66823 0.661974 0.655788 0.649671 0.643625 0.637648 0.631741 0.625903 0.620136 0.6126 0.605043 0.597464 0.589863 0.582241 0.574596 0.56693 0.559243 0.551533 0.543802 0.536049 0.528274 0.520478 0.512659 0.504819 0.496957 0.489074 0.481169 0.473242 0.465293 0.457322 0.44933 0.441316 0.43328 0.425223 0.417143 0.409042 0.400919 0.392775 0.384609 0.37642 0.368211 0.359979 0.351726 0.343451 0.335154 0.326835 0.318495 0.310133 0.301749 0.297647 0.293454 0.289171 0.284796 0.28033 0.275773 0.271125 0.266385 0.261555 0.256634 0.251622 0.246518 0.241324 0.236038 0.230662 0.225194 0.219636 0.213986 0.208245 0.202414 0.196491 0.190477 0.184372 0.178176 0.171889 0.165511 0.159042 0.152481 0.14583 0.139088 0.132255 0.12533 0.118315 0.111208 0.104011 0.0967219 0.0893422 0.0818715 0.0743097 0.0666569 0.0666355 0.0664883 0.0662152 0.0658163 0.0652914 0.0646408 0.0638642 0.0629618 0.0619335 0.0607794 0.0594994 0.0580935 0.0565617 0.0549041 0.0531207 0.0512113 0.0491761 0.0470151 0.0447282 0.0423154 0.0397767 0.0371122 0.0343218 0.0314056 0.0283634 0.0251955 0.0219016 0.0184819 0.0149364 0.0112649 0.00746762 0.00354445 -0.00050458 -0.00467947 -0.00898023 -0.0134069 -0.0179593 -0.0226377 -0.0274419 -0.032372 1.03761 1.03123 1.025 1.01894 1.01303 1.00728 1.00169 0.996249 0.990969 0.985847 0.980882 0.976074 0.971424 0.96693 0.962594 0.958415 0.954394 0.950529 0.946822 0.943272 0.939879 0.936643 0.933565 0.930644 0.92788 0.925273 0.922824 0.920531 0.918396 0.916418 0.914598 0.912934 0.911428 0.910079 0.908888 0.907853 0.906976 0.906256 0.905693 0.905287 0.905039 0.896564 0.888159 0.879824 0.871558 0.863361 0.855234 0.847177 0.839189 0.83127 0.823421 0.815642 0.807932 0.800291 0.79272 0.785219 0.777787 0.770425 0.763132 0.755908 0.748754 0.74167 0.734655 0.727709 0.720833 0.714027 0.70729 0.700622 0.694024 0.687496 0.681037 0.674648 0.668328 0.662077 0.655896 0.649785 0.643743 0.637771 0.631868 0.626034 0.62027 0.612725 0.605158 0.597569 0.589959 0.582327 0.574674 0.567 0.559304 0.551586 0.543847 0.536086 0.528304 0.5205 0.512675 0.504828 0.49696 0.48907 0.481159 0.473226 0.465272 0.457296 0.449299 0.44128 0.43324 0.425178 0.417094 0.408989 0.400863 0.392715 0.384545 0.376354 0.368142 0.359908 0.351652 0.343375 0.335077 0.326757 0.318415 0.310052 0.301667 0.297584 0.293409 0.289142 0.284784 0.280335 0.275794 0.271161 0.266437 0.261621 0.256714 0.251715 0.246624 0.241442 0.236169 0.230804 0.225347 0.219799 0.214159 0.208428 0.202605 0.196691 0.190685 0.184587 0.178398 0.172118 0.165746 0.159282 0.152727 0.14608 0.139342 0.132512 0.125591 0.118578 0.111473 0.104277 0.0969894 0.0896103 0.0821396 0.0745773 0.0669235 0.0668907 0.066732 0.0664474 0.0660369 0.0655006 0.0648383 0.0640502 0.0631363 0.0620964 0.0609307 0.0596391 0.0582216 0.0566782 0.055009 0.0532139 0.0512929 0.049246 0.0470733 0.0447747 0.0423502 0.0397998 0.0371235 0.0343214 0.0313934 0.0283395 0.0251598 0.0218541 0.0184226 0.0148652 0.011182 0.00737282 0.0034378 -0.000623091 -0.00480986 -0.00912251 -0.013561 -0.0181254 -0.0228157 -0.0276319 -0.0325739 1.03738 1.031 1.02478 1.01871 1.0128 1.00705 1.00146 0.996022 0.990743 0.985621 0.980656 0.975849 0.971199 0.966706 0.96237 0.958192 0.954171 0.950307 0.946601 0.943052 0.93966 0.936426 0.933348 0.930428 0.927666 0.92506 0.922612 0.920321 0.918188 0.916211 0.914392 0.912731 0.911226 0.909879 0.908689 0.907657 0.906781 0.906063 0.905503 0.905099 0.904853 0.896392 0.888 0.879677 0.871424 0.86324 0.855125 0.847079 0.839102 0.831195 0.823357 0.815588 0.807888 0.800258 0.792697 0.785205 0.777782 0.770428 0.763144 0.755929 0.748783 0.741706 0.734698 0.72776 0.720891 0.714091 0.70736 0.700699 0.694107 0.687584 0.68113 0.674746 0.66843 0.662184 0.656007 0.6499 0.643861 0.637892 0.631992 0.626161 0.620399 0.612844 0.605268 0.597671 0.590052 0.582412 0.57475 0.567067 0.559363 0.551638 0.543892 0.536124 0.528335 0.520524 0.512693 0.50484 0.496966 0.48907 0.481153 0.473215 0.465256 0.457275 0.449273 0.44125 0.433206 0.42514 0.417053 0.408945 0.400815 0.392664 0.384492 0.376299 0.368084 0.359848 0.351591 0.343312 0.335012 0.326691 0.318349 0.309985 0.3016 0.297533 0.293374 0.289123 0.28478 0.280344 0.275817 0.271198 0.266486 0.261683 0.256787 0.2518 0.24672 0.241548 0.236285 0.230929 0.225481 0.219942 0.21431 0.208586 0.20277 0.196862 0.190862 0.18477 0.178586 0.172309 0.165941 0.159481 0.152929 0.146284 0.139548 0.13272 0.125799 0.118787 0.111682 0.104485 0.0971967 0.089816 0.0823433 0.0747785 0.0671216 0.0670792 0.0669109 0.0666166 0.0661965 0.0656505 0.0649786 0.0641809 0.0632572 0.0622076 0.0610322 0.0597309 0.0583036 0.0567505 0.0550715 0.0532666 0.0513359 0.0492792 0.0470966 0.0447882 0.0423539 0.0397936 0.0371075 0.0342955 0.0313576 0.0282939 0.0251042 0.0217886 0.0183472 0.0147799 0.0110866 0.00726753 0.00332253 -0.000748361 -0.00494514 -0.00926781 -0.0137164 -0.0182908 -0.0229911 -0.0278174 -0.0327695 1.03722 1.03084 1.02461 1.01855 1.01264 1.00689 1.00129 0.995857 0.990578 0.985456 0.980491 0.975683 0.971033 0.96654 0.962205 0.958027 0.954006 0.950143 0.946437 0.942888 0.939497 0.936263 0.933186 0.930267 0.927505 0.924901 0.922453 0.920163 0.918031 0.916056 0.914238 0.912577 0.911074 0.909728 0.90854 0.907509 0.906635 0.905919 0.90536 0.904958 0.904714 0.896265 0.887885 0.879573 0.871331 0.863158 0.855054 0.847018 0.839052 0.831154 0.823326 0.815566 0.807876 0.800254 0.792701 0.785217 0.777802 0.770456 0.763179 0.755971 0.748832 0.741761 0.73476 0.727828 0.720964 0.71417 0.707444 0.700787 0.6942 0.687681 0.681231 0.67485 0.668538 0.662295 0.656121 0.650015 0.643979 0.638012 0.632113 0.626284 0.620523 0.612959 0.605374 0.597768 0.590141 0.582493 0.574824 0.567133 0.559422 0.55169 0.543936 0.536162 0.528366 0.52055 0.512712 0.504853 0.496974 0.489073 0.481151 0.473208 0.465244 0.457259 0.449254 0.441227 0.433178 0.425109 0.417019 0.408908 0.400776 0.392623 0.384448 0.376253 0.368037 0.359799 0.351541 0.343261 0.33496 0.326639 0.318296 0.309932 0.301548 0.297495 0.293349 0.289111 0.284781 0.280358 0.275842 0.271234 0.266534 0.26174 0.256855 0.251876 0.246806 0.241642 0.236386 0.231038 0.225597 0.220063 0.214437 0.208719 0.202908 0.197004 0.191008 0.184919 0.178738 0.172464 0.166097 0.159638 0.153087 0.146443 0.139706 0.132877 0.125956 0.118942 0.111835 0.104636 0.0973438 0.0899595 0.0824826 0.0749132 0.0672512 0.0672011 0.067025 0.066723 0.0662951 0.0657413 0.0650617 0.0642561 0.0633246 0.0622672 0.0610839 0.0597747 0.0583397 0.0567787 0.0550918 0.053279 0.0513403 0.0492757 0.0470852 0.0447688 0.0423265 0.0397583 0.0370642 0.0342442 0.0312983 0.0282265 0.0250288 0.0217052 0.0182557 0.0146803 0.0109789 0.00715174 0.00319862 -0.00088039 -0.00508531 -0.00941612 -0.0138728 -0.0184555 -0.023164 -0.0279984 -0.0329587 1.03712 1.03074 1.02452 1.01845 1.01254 1.00679 1.00119 0.995754 0.990474 0.985351 0.980386 0.975578 0.970927 0.966434 0.962098 0.95792 0.953899 0.950036 0.946329 0.942781 0.939389 0.936156 0.933079 0.93016 0.927399 0.924794 0.922347 0.920058 0.917926 0.915952 0.914134 0.912475 0.910972 0.909627 0.