<?xml version="1.0"?> 
<VTKFile type="StructuredGrid" version="0.1"> 
<StructuredGrid WholeExtent="0 100 0 100 0 0"> 
<Piece Extent="0 100 0 100 0 0"> 
<PointData Vectors="Diplacement">
<DataArray type="Float32" Name="Diplacement" format="ascii" NumberOfComponents="3"> 
-0.000475223 0 0 -0.000475485 0 0 -0.000475733 0 0 -0.000475968 0 0 -0.00047619 0 0 -0.000476397 0 0 -0.000476592 0 0 -0.000476772 0 0 -0.00047694 0 0 -0.000477094 0 0 -0.000477234 0 0 -0.000477361 0 0 -0.000477474 0 0 -0.000477574 0 0 -0.00047766 0 0 -0.000477733 0 0 -0.000477792 0 0 -0.000477838 0 0 -0.000477871 0 0 -0.000477889 0 0 -0.000477895 0 0 -0.00047789 0 0 -0.000477877 0 0 -0.000477858 0 0 -0.000477832 0 0 -0.000477798 0 0 -0.000477757 0 0 -0.00047771 0 0 -0.000477655 0 0 -0.000477592 0 0 -0.000477523 0 0 -0.000477447 0 0 -0.000477363 0 0 -0.000477273 0 0 -0.000477175 0 0 -0.00047707 0 0 -0.000476958 0 0 -0.000476838 0 0 -0.000476712 0 0 -0.000476578 0 0 -0.000476438 0 0 -0.00047629 0 0 -0.000476137 0 0 -0.000475978 0 0 -0.000475812 0 0 -0.000475641 0 0 -0.000475463 0 0 -0.00047528 0 0 -0.00047509 0 0 -0.000474895 0 0 -0.000474693 0 0 -0.000474486 0 0 -0.000474272 0 0 -0.000474052 0 0 -0.000473826 0 0 -0.000473595 0 0 -0.000473357 0 0 -0.000473113 0 0 -0.000472863 0 0 -0.000472607 0 0 -0.000472345 0 0 -0.000472076 0 0 -0.000471797 0 0 -0.00047151 0 0 -0.000471214 0 0 -0.000470909 0 0 -0.000470594 0 0 -0.000470271 0 0 -0.000469939 0 0 -0.000469598 0 0 -0.000469249 0 0 -0.00046889 0 0 -0.000468522 0 0 -0.000468145 0 0 -0.00046776 0 0 -0.000467365 0 0 -0.000466962 0 0 -0.000466549 0 0 -0.000466128 0 0 -0.000465698 0 0 -0.000465258 0 0 -0.000464807 0 0 -0.000464341 0 0 -0.00046386 0 0 -0.000463363 0 0 -0.000462852 0 0 -0.000462326 0 0 -0.000461785 0 0 -0.000461228 0 0 -0.000460657 0 0 -0.000460071 0 0 -0.00045947 0 0 -0.000458853 0 0 -0.000458222 0 0 -0.000457576 0 0 -0.000456914 0 0 -0.000456238 0 0 -0.000455547 0 0 -0.000454841 0 0 -0.000454119 0 0 -0.000453383 0 0 -0.000475199 1.53198e-06 0 -0.00047546 1.48952e-06 0 -0.000475708 1.44761e-06 0 -0.000475942 1.40624e-06 0 -0.000476163 1.36541e-06 0 -0.00047637 1.32512e-06 0 -0.000476564 1.28538e-06 0 -0.000476744 1.24618e-06 0 -0.000476911 1.20752e-06 0 -0.000477064 1.1694e-06 0 -0.000477204 1.13183e-06 0 -0.000477331 1.0948e-06 0 -0.000477444 1.05831e-06 0 -0.000477543 1.02236e-06 0 -0.000477629 9.86956e-07 0 -0.000477702 9.52093e-07 0 -0.000477761 9.17773e-07 0 -0.000477806 8.83995e-07 0 -0.000477838 8.5076e-07 0 -0.000477857 8.18067e-07 0 -0.000477862 7.85917e-07 0 -0.000477857 7.54164e-07 0 -0.000477845 7.22664e-07 0 -0.000477825 6.91416e-07 0 -0.000477798 6.60422e-07 0 -0.000477765 6.2968e-07 0 -0.000477724 5.9919e-07 0 -0.000477676 5.68954e-07 0 -0.000477621 5.3897e-07 0 -0.000477558 5.09239e-07 0 -0.000477489 4.79761e-07 0 -0.000477412 4.50535e-07 0 -0.000477328 4.21563e-07 0 -0.000477237 3.92843e-07 0 -0.000477139 3.64375e-07 0 -0.000477034 3.36161e-07 0 -0.000476921 3.08199e-07 0 -0.000476802 2.8049e-07 0 -0.000476675 2.53033e-07 0 -0.000476541 2.2583e-07 0 -0.0004764 1.98879e-07 0 -0.000476253 1.72012e-07 0 -0.000476099 1.45061e-07 0 -0.00047594 1.18026e-07 0 -0.000475774 9.09056e-08 0 -0.000475602 6.37013e-08 0 -0.000475425 3.64125e-08 0 -0.000475241 9.0394e-09 0 -0.000475052 -1.84182e-08 0 -0.000474856 -4.59601e-08 0 -0.000474655 -7.35865e-08 0 -0.000474447 -1.01297e-07 0 -0.000474234 -1.29092e-07 0 -0.000474014 -1.56972e-07 0 -0.000473789 -1.84936e-07 0 -0.000473557 -2.12984e-07 0 -0.00047332 -2.41117e-07 0 -0.000473077 -2.69334e-07 0 -0.000472827 -2.97636e-07 0 -0.000472572 -3.26022e-07 0 -0.00047231 -3.54492e-07 0 -0.000472041 -3.83153e-07 0 -0.000471763 -4.12111e-07 0 -0.000471477 -4.41366e-07 0 -0.000471181 -4.70917e-07 0 -0.000470876 -5.00765e-07 0 -0.000470562 -5.30909e-07 0 -0.00047024 -5.61351e-07 0 -0.000469908 -5.92089e-07 0 -0.000469567 -6.23124e-07 0 -0.000469218 -6.54455e-07 0 -0.000468859 -6.86084e-07 0 -0.000468492 -7.18009e-07 0 -0.000468115 -7.50231e-07 0 -0.00046773 -7.82749e-07 0 -0.000467335 -8.15565e-07 0 -0.000466932 -8.48677e-07 0 -0.000466519 -8.82086e-07 0 -0.000466098 -9.15791e-07 0 -0.000465668 -9.49793e-07 0 -0.000465228 -9.84092e-07 0 -0.000464777 -1.01876e-06 0 -0.000464311 -1.05386e-06 0 -0.00046383 -1.0894e-06 0 -0.000463334 -1.12537e-06 0 -0.000462823 -1.16178e-06 0 -0.000462297 -1.19862e-06 0 -0.000461756 -1.2359e-06 0 -0.0004612 -1.27362e-06 0 -0.000460629 -1.31177e-06 0 -0.000460043 -1.35036e-06 0 -0.000459442 -1.38938e-06 0 -0.000458827 -1.42884e-06 0 -0.000458196 -1.46874e-06 0 -0.00045755 -1.50907e-06 0 -0.00045689 -1.54984e-06 0 -0.000456214 -1.59104e-06 0 -0.000455524 -1.63268e-06 0 -0.000454818 -1.67476e-06 0 -0.000454098 -1.71727e-06 0 -0.000453363 -1.76021e-06 0 -0.000475131 3.06066e-06 0 -0.000475391 2.97582e-06 0 -0.000475638 2.89207e-06 0 -0.000475872 2.80941e-06 0 -0.000476092 2.72783e-06 0 -0.000476299 2.64733e-06 0 -0.000476492 2.56792e-06 0 -0.000476672 2.4896e-06 0 -0.000476838 2.41236e-06 0 -0.000476991 2.33621e-06 0 -0.00047713 2.26114e-06 0 -0.000477256 2.18715e-06 0 -0.000477369 2.11426e-06 0 -0.000477468 2.04244e-06 0 -0.000477553 1.97171e-06 0 -0.000477625 1.90207e-06 0 -0.000477684 1.83352e-06 0 -0.000477729 1.76604e-06 0 -0.000477761 1.69966e-06 0 -0.00047778 1.63435e-06 0 -0.000477784 1.57014e-06 0 -0.000477779 1.50672e-06 0 -0.000477767 1.4438e-06 0 -0.000477747 1.38138e-06 0 -0.00047772 1.31947e-06 0 -0.000477686 1.25806e-06 0 -0.000477645 1.19716e-06 0 -0.000477596 1.13676e-06 0 -0.000477541 1.07686e-06 0 -0.000477478 1.01747e-06 0 -0.000477409 9.58577e-07 0 -0.000477332 9.0019e-07 0 -0.000477248 8.42307e-07 0 -0.000477156 7.84927e-07 0 -0.000477058 7.28051e-07 0 -0.000476952 6.71678e-07 0 -0.00047684 6.15808e-07 0 -0.00047672 5.60443e-07 0 -0.000476593 5.0558e-07 0 -0.000476459 4.51222e-07 0 -0.000476317 3.97366e-07 0 -0.00047617 3.43679e-07 0 -0.000476016 2.89825e-07 0 -0.000475856 2.35803e-07 0 -0.00047569 1.81615e-07 0 -0.000475519 1.27259e-07 0 -0.000475341 7.27361e-08 0 -0.000475157 1.80459e-08 0 -0.000474968 -3.68114e-08 0 -0.000474772 -9.18359e-08 0 -0.000474571 -1.47028e-07 0 -0.000474364 -2.02386e-07 0 -0.00047415 -2.57912e-07 0 -0.000473931 -3.13606e-07 0 -0.000473706 -3.69466e-07 0 -0.000473475 -4.25494e-07 0 -0.000473238 -4.81688e-07 0 -0.000472994 -5.3805e-07 0 -0.000472745 -5.94579e-07 0 -0.00047249 -6.51275e-07 0 -0.00047223 -7.08139e-07 0 -0.000471961 -7.65384e-07 0 -0.000471684 -8.23227e-07 0 -0.000471397 -8.81666e-07 0 -0.000471102 -9.40702e-07 0 -0.000470798 -1.00034e-06 0 -0.000470484 -1.06057e-06 0 -0.000470162 -1.12139e-06 0 -0.000469831 -1.18282e-06 0 -0.00046949 -1.24484e-06 0 -0.000469141 -1.30745e-06 0 -0.000468783 -1.37067e-06 0 -0.000468416 -1.43448e-06 0 -0.000468039 -1.49889e-06 0 -0.000467654 -1.56389e-06 0 -0.00046726 -1.6295e-06 0 -0.000466856 -1.6957e-06 0 -0.000466444 -1.76249e-06 0 -0.000466023 -1.82989e-06 0 -0.000465593 -1.89787e-06 0 -0.000465154 -1.96646e-06 0 -0.000464702 -2.03578e-06 0 -0.000464236 -2.10598e-06 0 -0.000463755 -2.17704e-06 0 -0.00046326 -2.24898e-06 0 -0.000462749 -2.32179e-06 0 -0.000462223 -2.39547e-06 0 -0.000461683 -2.47002e-06 0 -0.000461127 -2.54544e-06 0 -0.000460557 -2.62174e-06 0 -0.000459971 -2.69891e-06 0 -0.000459371 -2.77694e-06 0 -0.000458756 -2.85586e-06 0 -0.000458126 -2.93564e-06 0 -0.000457481 -3.01629e-06 0 -0.000456821 -3.09782e-06 0 -0.000456146 -3.18022e-06 0 -0.000455457 -3.26349e-06 0 -0.000454752 -3.34763e-06 0 -0.000454033 -3.43264e-06 0 -0.000453298 -3.51853e-06 0 -0.000475019 4.58603e-06 0 -0.000475279 4.45889e-06 0 -0.000475525 4.33338e-06 0 -0.000475758 4.2095e-06 0 -0.000475978 4.08724e-06 0 -0.000476183 3.96662e-06 0 -0.000476376 3.84762e-06 0 -0.000476555 3.73026e-06 0 -0.000476721 3.61452e-06 0 -0.000476873 3.50041e-06 0 -0.000477012 3.38792e-06 0 -0.000477137 3.27707e-06 0 -0.000477249 3.16784e-06 0 -0.000477348 3.06025e-06 0 -0.000477433 2.95428e-06 0 -0.000477505 2.84994e-06 0 -0.000477563 2.74723e-06 0 -0.000477608 2.64614e-06 0 -0.000477639 2.54669e-06 0 -0.000477657 2.44886e-06 0 -0.000477662 2.35267e-06 0 -0.000477656 2.25766e-06 0 -0.000477643 2.1634e-06 0 -0.000477623 2.0699e-06 0 -0.000477596 1.97715e-06 0 -0.000477562 1.88515e-06 0 -0.00047752 1.79391e-06 0 -0.000477472 1.70341e-06 0 -0.000477416 1.61367e-06 0 -0.000477353 1.52468e-06 0 -0.000477283 1.43645e-06 0 -0.000477206 1.34896e-06 0 -0.000477121 1.26223e-06 0 -0.00047703 1.17625e-06 0 -0.000476931 1.09103e-06 0 -0.000476825 1.00655e-06 0 -0.000476712 9.22829e-07 0 -0.000476592 8.39859e-07 0 -0.000476465 7.57641e-07 0 -0.000476331 6.76175e-07 0 -0.000476189 5.95462e-07 0 -0.000476041 5.15001e-07 0 -0.000475887 4.34291e-07 0 -0.000475727 3.53334e-07 0 -0.000475561 2.72128e-07 0 -0.000475389 1.90673e-07 0 -0.000475211 1.08971e-07 0 -0.000475028 2.70195e-08 0 -0.000474838 -5.51798e-08 0 -0.000474643 -1.37627e-07 0 -0.000474442 -2.20323e-07 0 -0.000474234 -3.03268e-07 0 -0.000474021 -3.8646e-07 0 -0.000473802 -4.69901e-07 0 -0.000473577 -5.5359e-07 0 -0.000473346 -6.37528e-07 0 -0.000473109 -7.21713e-07 0 -0.000472867 -8.06147e-07 0 -0.000472618 -8.9083e-07 0 -0.000472364 -9.7576e-07 0 -0.000472103 -1.06094e-06 0 -0.000471835 -1.14669e-06 0 -0.000471558 -1.23335e-06 0 -0.000471272 -1.3209e-06 0 -0.000470978 -1.40936e-06 0 -0.000470674 -1.49871e-06 0 -0.000470361 -1.58897e-06 0 -0.000470039 -1.68012e-06 0 -0.000469708 -1.77218e-06 0 -0.000469368 -1.86514e-06 0 -0.000469019 -1.959e-06 0 -0.000468661 -2.05376e-06 0 -0.000468294 -2.14942e-06 0 -0.000467918 -2.24598e-06 0 -0.000467533 -2.34344e-06 0 -0.000467139 -2.4418e-06 0 -0.000466736 -2.54106e-06 0 -0.000466324 -2.64122e-06 0 -0.000465903 -2.74228e-06 0 -0.000465473 -2.84424e-06 0 -0.000465034 -2.94711e-06 0 -0.000464583 -3.05108e-06 0 -0.000464117 -3.15635e-06 0 -0.000463636 -3.26293e-06 0 -0.000463141 -3.37083e-06 0 -0.00046263 -3.48003e-06 0 -0.000462105 -3.59053e-06 0 -0.000461565 -3.70235e-06 0 -0.00046101 -3.81547e-06 0 -0.00046044 -3.9299e-06 0 -0.000459855 -4.04564e-06 0 -0.000459256 -4.16268e-06 0 -0.000458641 -4.28104e-06 0 -0.000458012 -4.4007e-06 0 -0.000457368 -4.52167e-06 0 -0.000456709 -4.64395e-06 0 -0.000456035 -4.76753e-06 0 -0.000455346 -4.89243e-06 0 -0.000454642 -5.01863e-06 0 -0.000453924 -5.14614e-06 0 -0.00045319 -5.27495e-06 0 -0.000474865 6.1081e-06 0 -0.000475124 5.93873e-06 0 -0.000475369 5.77154e-06 0 -0.000475601 5.60652e-06 0 -0.000475819 5.44367e-06 0 -0.000476025 5.28299e-06 0 -0.000476216 5.12448e-06 0 -0.000476395 4.96815e-06 0 -0.00047656 4.81399e-06 0 -0.000476711 4.662e-06 0 -0.000476849 4.51219e-06 0 -0.000476974 4.36454e-06 0 -0.000477086 4.21907e-06 0 -0.000477183 4.07577e-06 0 -0.000477268 3.93464e-06 0 -0.000477339 3.79569e-06 0 -0.000477397 3.65891e-06 0 -0.000477441 3.5243e-06 0 -0.000477472 3.39186e-06 0 -0.00047749 3.26159e-06 0 -0.000477494 3.1335e-06 0 -0.000477488 3.00699e-06 0 -0.000477475 2.88148e-06 0 -0.000477455 2.75697e-06 0 -0.000477427 2.63346e-06 0 -0.000477393 2.51095e-06 0 -0.000477351 2.38943e-06 0 -0.000477302 2.26892e-06 0 -0.000477246 2.14941e-06 0 -0.000477182 2.03089e-06 0 -0.000477112 1.91337e-06 0 -0.000477034 1.79686e-06 0 -0.00047695 1.68134e-06 0 -0.000476858 1.56682e-06 0 -0.000476759 1.4533e-06 0 -0.000476653 1.34078e-06 0 -0.000476539 1.22926e-06 0 -0.000476419 1.11874e-06 0 -0.000476291 1.00921e-06 0 -0.000476157 9.00691e-07 0 -0.000476015 7.93166e-07 0 -0.000475866 6.85977e-07 0 -0.000475712 5.78461e-07 0 -0.000475552 4.70616e-07 0 -0.000475386 3.62444e-07 0 -0.000475214 2.53944e-07 0 -0.000475036 1.45116e-07 0 -0.000474853 3.59603e-08 0 -0.000474663 -7.35233e-08 0 -0.000474468 -1.83335e-07 0 -0.000474266 -2.93474e-07 0 -0.000474059 -4.03941e-07 0 -0.000473846 -5.14735e-07 0 -0.000473627 -6.25858e-07 0 -0.000473403 -7.37308e-07 0 -0.000473172 -8.49086e-07 0 -0.000472936 -9.61192e-07 0 -0.000472693 -1.07363e-06 0 -0.000472445 -1.18639e-06 0 -0.000472191 -1.29948e-06 0 -0.000471931 -1.41289e-06 0 -0.000471664 -1.52708e-06 0 -0.000471387 -1.64247e-06 0 -0.000471102 -1.75907e-06 0 -0.000470807 -1.87688e-06 0 -0.000470504 -1.99589e-06 0 -0.000470191 -2.11612e-06 0 -0.00046987 -2.23755e-06 0 -0.000469539 -2.36019e-06 0 -0.0004692 -2.48403e-06 0 -0.000468851 -2.60908e-06 0 -0.000468493 -2.73534e-06 0 -0.000468127 -2.86281e-06 0 -0.000467751 -2.99149e-06 0 -0.000467366 -3.12137e-06 0 -0.000466973 -3.25246e-06 0 -0.00046657 -3.38476e-06 0 -0.000466158 -3.51827e-06 0 -0.000465738 -3.65298e-06 0 -0.000465308 -3.7889e-06 0 -0.000464869 -3.92603e-06 0 -0.000464418 -4.06464e-06 0 -0.000463953 -4.20499e-06 0 -0.000463473 -4.34708e-06 0 -0.000462977 -4.49091e-06 0 -0.000462467 -4.6365e-06 0 -0.000461943 -4.78382e-06 0 -0.000461403 -4.93289e-06 0 -0.000460848 -5.0837e-06 0 -0.000460279 -5.23626e-06 0 -0.000459695 -5.39056e-06 0 -0.000459096 -5.5466e-06 0 -0.000458482 -5.70439e-06 0 -0.000457854 -5.86392e-06 0 -0.00045721 -6.0252e-06 0 -0.000456552 -6.18822e-06 0 -0.000455879 -6.35298e-06 0 -0.000455191 -6.51949e-06 0 -0.000454488 -6.68774e-06 0 -0.00045377 -6.85774e-06 0 -0.000453038 -7.02948e-06 0 -0.000474667 7.62686e-06 0 -0.000474925 7.41535e-06 0 -0.000475169 7.20655e-06 0 -0.0004754 7.00046e-06 0 -0.000475618 6.79709e-06 0 -0.000475822 6.59644e-06 0 -0.000476013 6.39851e-06 0 -0.00047619 6.20329e-06 0 -0.000476354 6.01079e-06 0 -0.000476505 5.821e-06 0 -0.000476643 5.63393e-06 0 -0.000476767 5.44958e-06 0 -0.000476877 5.26794e-06 0 -0.000476975 5.08902e-06 0 -0.000477059 4.91282e-06 0 -0.000477129 4.73933e-06 0 -0.000477186 4.56856e-06 0 -0.00047723 4.4005e-06 0 -0.000477261 4.23516e-06 0 -0.000477278 4.07254e-06 0 -0.000477282 3.91263e-06 0 -0.000477275 3.75471e-06 0 -0.000477262 3.59803e-06 0 -0.000477241 3.44259e-06 0 -0.000477213 3.28839e-06 0 -0.000477178 3.13544e-06 0 -0.000477136 2.98374e-06 0 -0.000477086 2.83328e-06 0 -0.00047703 2.68406e-06 0 -0.000476966 2.53608e-06 0 -0.000476895 2.38935e-06 0 -0.000476818 2.24387e-06 0 -0.000476733 2.09963e-06 0 -0.00047664 1.95663e-06 0 -0.000476541 1.81488e-06 0 -0.000476435 1.67437e-06 0 -0.000476321 1.5351e-06 0 -0.0004762 1.39708e-06 0 -0.000476072 1.2603e-06 0 -0.000475937 1.12477e-06 0 -0.000475795 9.90479e-07 0 -0.000475646 8.56609e-07 0 -0.000475492 7.22333e-07 0 -0.000475332 5.87651e-07 0 -0.000475165 4.52564e-07 0 -0.000474993 3.17071e-07 0 -0.000474816 1.81172e-07 0 -0.000474632 4.48681e-08 0 -0.000474442 -9.18418e-08 0 -0.000474247 -2.28957e-07 0 -0.000474046 -3.66479e-07 0 -0.000473839 -5.04406e-07 0 -0.000473626 -6.42738e-07 0 -0.000473407 -7.81476e-07 0 -0.000473183 -9.2062e-07 0 -0.000472952 -1.06017e-06 0 -0.000472716 -1.20013e-06 0 -0.000472474 -1.34049e-06 0 -0.000472226 -1.48125e-06 0 -0.000471973 -1.62242e-06 0 -0.000471713 -1.764e-06 0 -0.000471446 -1.90654e-06 0 -0.00047117 -2.0506e-06 0 -0.000470885 -2.19618e-06 0 -0.000470591 -2.34327e-06 0 -0.000470288 -2.49188e-06 0 -0.000469976 -2.64201e-06 0 -0.000469655 -2.79366e-06 0 -0.000469325 -2.94683e-06 0 -0.000468986 -3.10151e-06 0 -0.000468637 -3.25771e-06 0 -0.00046828 -3.41543e-06 0 -0.000467914 -3.57467e-06 0 -0.000467539 -3.73543e-06 0 -0.000467154 -3.8977e-06 0 -0.000466761 -4.0615e-06 0 -0.000466359 -4.22681e-06 0 -0.000465948 -4.39364e-06 0 -0.000465527 -4.56198e-06 0 -0.000465098 -4.73185e-06 0 -0.000464659 -4.90323e-06 0 -0.000464209 -5.07646e-06 0 -0.000463744 -5.25188e-06 0 -0.000463264 -5.42947e-06 0 -0.000462769 -5.60924e-06 0 -0.00046226 -5.7912e-06 0 -0.000461736 -5.97533e-06 0 -0.000461196 -6.16164e-06 0 -0.000460643 -6.35014e-06 0 -0.000460074 -6.54081e-06 0 -0.00045949 -6.73366e-06 0 -0.000458892 -6.9287e-06 0 -0.000458279 -7.12591e-06 0 -0.000457651 -7.32531e-06 0 -0.000457009 -7.52688e-06 0 -0.000456351 -7.73064e-06 0 -0.000455679 -7.93657e-06 0 -0.000454992 -8.14469e-06 0 -0.00045429 -8.35498e-06 0 -0.000453573 -8.56746e-06 0 -0.000452842 -8.78211e-06 0 -0.000474426 9.14232e-06 0 -0.000474682 8.88873e-06 0 -0.000474926 8.6384e-06 0 -0.000475155 8.39133e-06 0 -0.000475372 8.14752e-06 0 -0.000475575 7.90698e-06 0 -0.000475765 7.66969e-06 0 -0.000475942 7.43566e-06 0 -0.000476105 7.2049e-06 0 -0.000476255 6.97739e-06 0 -0.000476392 6.75315e-06 0 -0.000476515 6.53217e-06 0 -0.000476625 6.31445e-06 0 -0.000476721 6.09999e-06 0 -0.000476805 5.88879e-06 0 -0.000476875 5.68085e-06 0 -0.000476931 5.47617e-06 0 -0.000476974 5.27476e-06 0 -0.000477004 5.0766e-06 0 -0.000477021 4.88171e-06 0 -0.000477024 4.69007e-06 0 -0.000477017 4.50081e-06 0 -0.000477003 4.31304e-06 0 -0.000476982 4.12676e-06 0 -0.000476953 3.94196e-06 0 -0.000476918 3.75865e-06 0 -0.000476875 3.57682e-06 0 -0.000476826 3.39648e-06 0 -0.000476769 3.21763e-06 0 -0.000476705 3.04027e-06 0 -0.000476633 2.86439e-06 0 -0.000476555 2.69e-06 0 -0.00047647 2.5171e-06 0 -0.000476377 2.34568e-06 0 -0.000476278 2.17575e-06 0 -0.000476171 2.00731e-06 0 -0.000476057 1.84035e-06 0 -0.000475936 1.67488e-06 0 -0.000475808 1.5109e-06 0 -0.000475672 1.34841e-06 0 -0.00047553 1.1874e-06 0 -0.000475381 1.02689e-06 0 -0.000475226 8.65908e-07 0 -0.000475066 7.04438e-07 0 -0.000474899 5.42487e-07 0 -0.000474727 3.80054e-07 0 -0.000474549 2.1714e-07 0 -0.000474365 5.3743e-08 0 -0.000474176 -1.10136e-07 0 -0.000473981 -2.74496e-07 0 -0.00047378 -4.39338e-07 0 -0.000473573 -6.04663e-07 0 -0.00047336 -7.70469e-07 0 -0.000473141 -9.36757e-07 0 -0.000472917 -1.10353e-06 0 -0.000472687 -1.27078e-06 0 -0.000472451 -1.43851e-06 0 -0.000472209 -1.60673e-06 0 -0.000471962 -1.77542e-06 0 -0.000471709 -1.9446e-06 0 -0.000471449 -2.11427e-06 0 -0.000471183 -2.28508e-06 0 -0.000470907 -2.45773e-06 0 -0.000470623 -2.63222e-06 0 -0.000470329 -2.80853e-06 0 -0.000470027 -2.98668e-06 0 -0.000469715 -3.16665e-06 0 -0.000469394 -3.34846e-06 0 -0.000469065 -3.53211e-06 0 -0.000468726 -3.71758e-06 0 -0.000468378 -3.90489e-06 0 -0.000468021 -4.09403e-06 0 -0.000467656 -4.285e-06 0 -0.000467281 -4.4778e-06 0 -0.000466897 -4.67243e-06 0 -0.000466504 -4.8689e-06 0 -0.000466102 -5.0672e-06 0 -0.000465692 -5.26733e-06 0 -0.000465272 -5.46929e-06 0 -0.000464843 -5.67308e-06 0 -0.000464405 -5.87871e-06 0 -0.000463955 -6.08656e-06 0 -0.00046349 -6.29703e-06 0 -0.000463011 -6.51011e-06 0 -0.000462517 -6.72581e-06 0 -0.000462008 -6.94413e-06 0 -0.000461484 -7.16506e-06 0 -0.000460946 -7.38861e-06 0 -0.000460392 -7.61478e-06 0 -0.000459824 -7.84356e-06 0 -0.000459242 -8.07496e-06 0 -0.000458644 -8.30897e-06 0 -0.000458032 -8.5456e-06 0 -0.000457405 -8.78485e-06 0 -0.000456763 -9.02672e-06 0 -0.000456106 -9.2712e-06 0 -0.000455435 -9.51829e-06 0 -0.000454749 -9.76801e-06 0 -0.000454048 -1.00203e-05 0 -0.000453332 -1.02753e-05 0 -0.000452601 -1.05328e-05 0 -0.000474141 1.06545e-05 0 -0.000474396 1.03589e-05 0 -0.000474639 1.00671e-05 0 -0.000474867 9.77913e-06 0 -0.000475083 9.49496e-06 0 -0.000475285 9.21459e-06 0 -0.000475474 8.93803e-06 0 -0.000475649 8.66528e-06 0 -0.000475812 8.39633e-06 0 -0.000475961 8.13119e-06 0 -0.000476096 7.86985e-06 0 -0.000476219 7.61232e-06 0 -0.000476328 7.3586e-06 0 -0.000476424 7.10868e-06 0 -0.000476506 6.86257e-06 0 -0.000476575 6.62026e-06 0 -0.000476631 6.38176e-06 0 -0.000476674 6.14707e-06 0 -0.000476703 5.91618e-06 0 -0.000476719 5.6891e-06 0 -0.000476722 5.46582e-06 0 -0.000476714 5.24531e-06 0 -0.000476699 5.02653e-06 0 -0.000476678 4.80948e-06 0 -0.000476649 4.59415e-06 0 -0.000476613 4.38055e-06 0 -0.00047657 4.16868e-06 0 -0.000476519 3.95854e-06 0 -0.000476462 3.75013e-06 0 -0.000476398 3.54344e-06 0 -0.000476326 3.33848e-06 0 -0.000476247 3.13525e-06 0 -0.000476161 2.93375e-06 0 -0.000476069 2.73397e-06 0 -0.000475968 2.53593e-06 0 -0.000475861 2.33961e-06 0 -0.000475747 2.14502e-06 0 -0.000475626 1.95215e-06 0 -0.000475497 1.76102e-06 0 -0.000475362 1.57161e-06 0 -0.000475219 1.38393e-06 0 -0.00047507 1.19684e-06 0 -0.000474915 1.00918e-06 0 -0.000474754 8.20978e-07 0 -0.000474588 6.32214e-07 0 -0.000474415 4.42894e-07 0 -0.000474237 2.53018e-07 0 -0.000474054 6.25851e-08 0 -0.000473864 -1.28404e-07 0 -0.000473669 -3.1995e-07 0 -0.000473468 -5.12053e-07 0 -0.000473261 -7.04711e-07 0 -0.000473048 -8.97927e-07 0 -0.00047283 -1.0917e-06 0 -0.000472606 -1.28603e-06 0 -0.000472376 -1.48091e-06 0 -0.00047214 -1.67635e-06 0 -0.000471899 -1.87235e-06 0 -0.000471652 -2.0689e-06 0 -0.000471399 -2.26602e-06 0 -0.00047114 -2.46368e-06 0 -0.000470874 -2.6627e-06 0 -0.000470599 -2.86387e-06 0 -0.000470315 -3.06719e-06 0 -0.000470021 -3.27266e-06 0 -0.000469719 -3.48028e-06 0 -0.000469408 -3.69004e-06 0 -0.000469088 -3.90196e-06 0 -0.000468759 -4.11603e-06 0 -0.000468421 -4.33224e-06 0 -0.000468073 -4.5506e-06 0 -0.000467717 -4.77112e-06 0 -0.000467352 -4.99378e-06 0 -0.000466978 -5.21859e-06 0 -0.000466594 -5.44556e-06 0 -0.000466202 -5.67467e-06 0 -0.000465801 -5.90593e-06 0 -0.00046539 -6.13934e-06 0 -0.000464971 -6.3749e-06 0 -0.000464543 -6.61261e-06 0 -0.000464105 -6.85247e-06 0 -0.000463656 -7.09492e-06 0 -0.000463192 -7.34044e-06 0 -0.000462713 -7.589e-06 0 -0.00046222 -7.84062e-06 0 -0.000461711 -8.09529e-06 0 -0.000461188 -8.35301e-06 0 -0.000460651 -8.61379e-06 0 -0.000460098 -8.87762e-06 0 -0.000459531 -9.1445e-06 0 -0.000458949 -9.41444e-06 0 -0.000458352 -9.68742e-06 0 -0.00045774 -9.96346e-06 0 -0.000457114 -1.02426e-05 0 -0.000456473 -1.05247e-05 0 -0.000455817 -1.08099e-05 0 -0.000455147 -1.10982e-05 0 -0.000454461 -1.13895e-05 0 -0.000453761 -1.16838e-05 0 -0.000453047 -1.19812e-05 0 -0.000452317 -1.22817e-05 0 -0.000473813 1.21633e-05 0 -0.000474067 1.18258e-05 0 -0.000474308 1.14927e-05 0 -0.000474536 1.11639e-05 0 -0.00047475 1.08394e-05 0 -0.000474951 1.05193e-05 0 -0.000475139 1.02035e-05 0 -0.000475313 9.89213e-06 0 -0.000475474 9.58508e-06 0 -0.000475622 9.28238e-06 0 -0.000475757 8.98403e-06 0 -0.000475878 8.69003e-06 0 -0.000475987 8.40039e-06 0 -0.000476081 8.11509e-06 0 -0.000476163 7.83415e-06 0 -0.000476231 7.55756e-06 0 -0.000476286 7.28532e-06 0 -0.000476328 7.01743e-06 0 -0.000476357 6.75389e-06 0 -0.000476372 6.49471e-06 0 -0.000476374 6.23987e-06 0 -0.000476366 5.9882e-06 0 -0.000476351 5.73849e-06 0 -0.000476328 5.49075e-06 0 -0.000476299 5.24497e-06 0 -0.000476262 5.00116e-06 0 -0.000476219 4.75932e-06 0 -0.000476168 4.51945e-06 0 -0.00047611 4.28154e-06 0 -0.000476045 4.0456e-06 0 -0.000475973 3.81163e-06 0 -0.000475894 3.57962e-06 0 -0.000475808 3.34958e-06 0 -0.000475714 3.12151e-06 0 -0.000475614 2.8954e-06 0 -0.000475506 2.67126e-06 0 -0.000475392 2.44909e-06 0 -0.00047527 2.22888e-06 0 -0.000475141 2.01064e-06 0 -0.000475005 1.79437e-06 0 -0.000474862 1.58007e-06 0 -0.000474713 1.36643e-06 0 -0.000474558 1.15217e-06 0 -0.000474397 9.3727e-07 0 -0.00047423 7.21745e-07 0 -0.000474058 5.05591e-07 0 -0.00047388 2.88807e-07 0 -0.000473696 7.13943e-08 0 -0.000473506 -1.46648e-07 0 -0.000473311 -3.6532e-07 0 -0.00047311 -5.84621e-07 0 -0.000472903 -8.04552e-07 0 -0.000472691 -1.02511e-06 0 -0.000472473 -1.2463e-06 0 -0.000472249 -1.46812e-06 0 -0.000472019 -1.69057e-06 0 -0.000471784 -1.91365e-06 0 -0.000471543 -2.13735e-06 0 -0.000471296 -2.36169e-06 0 -0.000471043 -2.58666e-06 0 -0.000470785 -2.81225e-06 0 -0.000470519 -3.0394e-06 0 -0.000470244 -3.26901e-06 0 -0.000469961 -3.5011e-06 0 -0.000469668 -3.73566e-06 0 -0.000469366 -3.97268e-06 0 -0.000469056 -4.21218e-06 0 -0.000468736 -4.45415e-06 0 -0.000468407 -4.69858e-06 0 -0.00046807 -4.94549e-06 0 -0.000467723 -5.19487e-06 0 -0.000467367 -5.44671e-06 0 -0.000467002 -5.70103e-06 0 -0.000466629 -5.95782e-06 0 -0.000466246 -6.21708e-06 0 -0.000465854 -6.4788e-06 0 -0.000465454 -6.743e-06 0 -0.000465044 -7.00967e-06 0 -0.000464625 -7.27881e-06 0 -0.000464197 -7.55042e-06 0 -0.000463761 -7.8245e-06 0 -0.000463312 -8.10156e-06 0 -0.000462849 -8.3821e-06 0 -0.000462371 -8.66614e-06 0 -0.000461878 -8.95367e-06 0 -0.00046137 -9.24468e-06 0 -0.000460848 -9.53919e-06 0 -0.000460311 -9.83718e-06 0 -0.000459759 -1.01387e-05 0 -0.000459193 -1.04436e-05 0 -0.000458612 -1.07521e-05 0 -0.000458016 -1.10641e-05 0 -0.000457405 -1.13795e-05 0 -0.00045678 -1.16984e-05 0 -0.000456139 -1.20208e-05 0 -0.000455484 -1.23468e-05 0 -0.000454815 -1.26762e-05 0 -0.00045413 -1.3009e-05 0 -0.000453431 -1.33454e-05 0 -0.000452717 -1.36853e-05 0 -0.000451989 -1.40286e-05 0 -0.000473442 1.36689e-05 0 -0.000473694 1.32895e-05 0 -0.000473934 1.29151e-05 0 -0.00047416 1.25455e-05 0 -0.000474373 1.21808e-05 0 -0.000474573 1.18211e-05 0 -0.000474759 1.14662e-05 0 -0.000474933 1.11162e-05 0 -0.000475093 1.07711e-05 0 -0.00047524 1.0431e-05 0 -0.000475373 1.00957e-05 0 -0.000475494 9.7653e-06 0 -0.000475601 9.43982e-06 0 -0.000475695 9.11923e-06 0 -0.000475775 8.80353e-06 0 -0.000475843 8.49274e-06 0 -0.000475897 8.18684e-06 0 -0.000475938 7.88584e-06 0 -0.000475966 7.58974e-06 0 -0.00047598 7.29854e-06 0 -0.000475981 7.01223e-06 0 -0.000475973 6.72947e-06 0 -0.000475957 6.44892e-06 0 -0.000475934 6.17057e-06 0 -0.000475904 5.89442e-06 0 -0.000475866 5.62048e-06 0 -0.000475822 5.34874e-06 0 -0.000475771 5.07921e-06 0 -0.000475712 4.81188e-06 0 -0.000475647 4.54675e-06 0 -0.000475574 4.28383e-06 0 -0.000475495 4.02311e-06 0 -0.000475408 3.76459e-06 0 -0.000475314 3.50828e-06 0 -0.000475214 3.25418e-06 0 -0.000475106 3.00227e-06 0 -0.000474991 2.75257e-06 0 -0.000474869 2.50508e-06 0 -0.00047474 2.25979e-06 0 -0.000474603 2.0167e-06 0 -0.00047446 1.77581e-06 0 -0.00047431 1.53568e-06 0 -0.000474155 1.29485e-06 0 -0.000473994 1.05331e-06 0 -0.000473827 8.11079e-07 0 -0.000473655 5.68144e-07 0 -0.000473477 3.24508e-07 0 -0.000473293 8.01706e-08 0 -0.000473103 -1.64867e-07 0 -0.000472908 -4.10606e-07 0 -0.000472707 -6.57045e-07 0 -0.0004725 -9.04185e-07 0 -0.000472288 -1.15203e-06 0 -0.00047207 -1.40057e-06 0 -0.000471846 -1.64981e-06 0 -0.000471617 -1.89975e-06 0 -0.000471382 -2.1504e-06 0 -0.000471141 -2.40174e-06 0 -0.000470894 -2.65379e-06 0 -0.000470642 -2.90653e-06 0 -0.000470384 -3.15998e-06 0 -0.000470119 -3.41517e-06 0 -0.000469844 -3.67316e-06 0 -0.000469561 -3.93394e-06 0 -0.000469269 -4.19752e-06 0 -0.000468968 -4.46389e-06 0 -0.000468657 -4.73306e-06 0 -0.000468338 -5.00502e-06 0 -0.00046801 -5.27978e-06 0 -0.000467673 -5.55733e-06 0 -0.000467327 -5.83767e-06 0 -0.000466971 -6.12081e-06 0 -0.000466607 -6.40674e-06 0 -0.000466234 -6.69547e-06 0 -0.000465852 -6.98699e-06 0 -0.000465461 -7.28131e-06 0 -0.000465061 -7.57842e-06 0 -0.000464652 -7.87832e-06 0 -0.000464234 -8.18102e-06 0 -0.000463807 -8.48652e-06 0 -0.000463371 -8.79481e-06 0 -0.000462923 -9.10645e-06 0 -0.000462461 -9.42203e-06 0 -0.000461984 -9.74153e-06 0 -0.000461492 -1.0065e-05 0 -0.000460985 -1.03923e-05 0 -0.000460463 -1.07236e-05 0 -0.000459927 -1.10588e-05 0 -0.000459376 -1.13979e-05 0 -0.000458811 -1.1741e-05 0 -0.00045823 -1.2088e-05 0 -0.000457635 -1.24389e-05 0 -0.000457025 -1.27937e-05 0 -0.000456401 -1.31525e-05 0 -0.000455761 -1.35151e-05 0 -0.000455107 -1.38817e-05 0 -0.000454439 -1.42523e-05 0 -0.000453755 -1.46267e-05 0 -0.000453057 -1.50051e-05 0 -0.000452344 -1.53874e-05 0 -0.000451616 -1.57737e-05 0 -0.000473027 1.51711e-05 0 -0.000473278 1.475e-05 0 -0.000473516 1.43343e-05 0 -0.000473741 1.39241e-05 0 -0.000473953 1.35193e-05 0 -0.000474151 1.31199e-05 0 -0.000474336 1.2726e-05 0 -0.000474508 1.23376e-05 0 -0.000474667 1.19545e-05 0 -0.000474813 1.1577e-05 0 -0.000474945 1.12048e-05 0 -0.000475065 1.08381e-05 0 -0.000475171 1.04769e-05 0 -0.000475263 1.01211e-05 0 -0.000475343 9.77072e-06 0 -0.00047541 9.42581e-06 0 -0.000475463 9.08634e-06 0 -0.000475503 8.75231e-06 0 -0.00047553 8.42373e-06 0 -0.000475543 8.10058e-06 0 -0.000475544 7.78289e-06 0 -0.000475534 7.46913e-06 0 -0.000475518 7.15782e-06 0 -0.000475494 6.84894e-06 0 -0.000475463 6.5425e-06 0 -0.000475425 6.2385e-06 0 -0.00047538 5.93694e-06 0 -0.000475328 5.63782e-06 0 -0.00047527 5.34113e-06 0 -0.000475204 5.04689e-06 0 -0.00047513 4.75508e-06 0 -0.00047505 4.46572e-06 0 -0.000474963 4.17879e-06 0 -0.000474869 3.8943e-06 0 -0.000474768 3.61225e-06 0 -0.000474659 3.33264e-06 0 -0.000474544 3.05547e-06 0 -0.000474422 2.78073e-06 0 -0.000474292 2.50844e-06 0 -0.000474156 2.23859e-06 0 -0.000474012 1.97117e-06 0 -0.000473862 1.70459e-06 0 -0.000473707 1.43723e-06 0 -0.000473546 1.16911e-06 0 -0.000473379 9.00217e-07 0 -0.000473206 6.30553e-07 0 -0.000473028 3.60119e-07 0 -0.000472844 8.8914e-08 0 -0.000472655 -1.83061e-07 0 -0.000472459 -4.55807e-07 0 -0.000472258 -7.29323e-07 0 -0.000472052 -1.00361e-06 0 -0.00047184 -1.27867e-06 0 -0.000471622 -1.55449e-06 0 -0.000471398 -1.83109e-06 0 -0.000471169 -2.10846e-06 0 -0.000470934 -2.3866e-06 0 -0.000470693 -2.66551e-06 0 -0.000470447 -2.94519e-06 0 -0.000470195 -3.22564e-06 0 -0.000469937 -3.50686e-06 0 -0.000469672 -3.79002e-06 0 -0.000469398 -4.07631e-06 0 -0.000469116 -4.36572e-06 0 -0.000468824 -4.65826e-06 0 -0.000468523 -4.95391e-06 0 -0.000468213 -5.25269e-06 0 -0.000467895 -5.55459e-06 0 -0.000467567 -5.85961e-06 0 -0.00046723 -6.16775e-06 0 -0.000466885 -6.47902e-06 0 -0.00046653 -6.79341e-06 0 -0.000466167 -7.11092e-06 0 -0.000465794 -7.43155e-06 0 -0.000465413 -7.7553e-06 0 -0.000465023 -8.08218e-06 0 -0.000464623 -8.41218e-06 0 -0.000464215 -8.7453e-06 0 -0.000463798 -9.08154e-06 0 -0.000463372 -9.42091e-06 0 -0.000462937 -9.76339e-06 0 -0.00046249 -1.01096e-05 0 -0.000462028 -1.04602e-05 0 -0.000461552 -1.08152e-05 0 -0.000461061 -1.11745e-05 0 -0.000460555 -1.15382e-05 0 -0.000460034 -1.19062e-05 0 -0.000459499 -1.22786e-05 0 -0.000458949 -1.26554e-05 0 -0.000458384 -1.30365e-05 0 -0.000457805 -1.3422e-05 0 -0.00045721 -1.38118e-05 0 -0.000456602 -1.42061e-05 0 -0.000455978 -1.46046e-05 0 -0.00045534 -1.50076e-05 0 -0.000454686 -1.54149e-05 0 -0.000454019 -1.58266e-05 0 -0.000453336 -1.62426e-05 0 -0.000452639 -1.6663e-05 0 -0.000451927 -1.70877e-05 0 -0.0004512 -1.75168e-05 0 -0.000472569 1.66701e-05 0 -0.000472819 1.62072e-05 0 -0.000473055 1.57504e-05 0 -0.000473278 1.52996e-05 0 -0.000473489 1.48547e-05 0 -0.000473686 1.44159e-05 0 -0.000473869 1.3983e-05 0 -0.00047404 1.35561e-05 0 -0.000474198 1.31352e-05 0 -0.000474342 1.27203e-05 0 -0.000474473 1.23114e-05 0 -0.000474591 1.19085e-05 0 -0.000474696 1.15116e-05 0 -0.000474788 1.11207e-05 0 -0.000474866 1.07357e-05 0 -0.000474932 1.03568e-05 0 -0.000474984 9.983