<?xml version="1.0"?> 
<VTKFile type="StructuredGrid" version="0.1"> 
<StructuredGrid WholeExtent="0 200 0 200 0 0"> 
<Piece Extent="0 200 0 200 0 0"> 
<PointData Scalars="Stress components">
<DataArray type="Float32" Name="sigma_xx" format="ascii" NumberOfComponents="1"> 
0.953544 0.958365 0.963064 0.967643 0.972101 0.976439 0.980655 0.984751 0.988726 0.99258 0.996313 0.999926 1.00342 1.00679 1.01004 1.01317 1.01618 1.01907 1.02183 1.02448 1.027 1.02941 1.03169 1.03386 1.0359 1.03782 1.03962 1.0413 1.04286 1.0443 1.04562 1.04681 1.04789 1.04884 1.04968 1.05039 1.05098 1.05146 1.05181 1.05204 1.05215 1.05892 1.06565 1.07232 1.07895 1.08552 1.09205 1.09852 1.10495 1.11132 1.11764 1.12392 1.13014 1.13632 1.14244 1.14851 1.15454 1.16051 1.16643 1.17231 1.17813 1.1839 1.18963 1.1953 1.20092 1.20649 1.21202 1.21749 1.22291 1.22828 1.23361 1.23888 1.2441 1.24927 1.25439 1.25947 1.26449 1.26946 1.27438 1.27925 1.28407 1.29034 1.29661 1.30287 1.30913 1.31538 1.32163 1.32788 1.33412 1.34036 1.3466 1.35283 1.35906 1.36528 1.37151 1.37772 1.38394 1.39015 1.39635 1.40255 1.40875 1.41495 1.42114 1.42733 1.43351 1.43969 1.44586 1.45204 1.45821 1.46437 1.47053 1.47669 1.48284 1.48899 1.49514 1.50128 1.50742 1.51356 1.51969 1.52581 1.53194 1.54889 1.56575 1.58253 1.59921 1.61581 1.63232 1.64873 1.66506 1.68131 1.69746 1.71352 1.7295 1.74539 1.76118 1.77689 1.79251 1.80805 1.82349 1.83884 1.85411 1.86929 1.88437 1.89937 1.91429 1.92911 1.94384 1.95849 1.97304 1.98751 2.00189 2.01618 2.03038 2.04449 2.05852 2.07245 2.0863 2.10006 2.11373 2.12731 2.1408 2.16083 2.18198 2.20424 2.22761 2.2521 2.27769 2.3044 2.33222 2.36115 2.39119 2.42234 2.45461 2.48798 2.52247 2.55807 2.59478 2.63261 2.67154 2.71159 2.75275 2.79502 2.8384 2.8829 2.9285 2.97522 3.02305 3.07199 3.12204 3.17321 3.22548 3.27887 3.33337 3.38898 3.4457 3.50354 3.56248 3.62254 3.68371 3.74599 3.80938 0.954896 0.959775 0.964533 0.969168 0.973682 0.978074 0.982344 0.986493 0.99052 0.994424 0.998207 1.00187 1.00541 1.00883 1.01212 1.0153 1.01835 1.02128 1.02409 1.02677 1.02934 1.03178 1.0341 1.0363 1.03838 1.04034 1.04217 1.04388 1.04547 1.04694 1.04829 1.04951 1.05062 1.0516 1.05246 1.0532 1.05381 1.05431 1.05468 1.05493 1.05506 1.06196 1.06881 1.07561 1.08236 1.08906 1.0957 1.1023 1.10885 1.11534 1.12179 1.12818 1.13452 1.14082 1.14706 1.15325 1.15939 1.16548 1.17152 1.17751 1.18345 1.18934 1.19518 1.20097 1.2067 1.21239 1.21803 1.22361 1.22915 1.23463 1.24006 1.24545 1.25078 1.25606 1.26129 1.26647 1.2716 1.27668 1.28171 1.28669 1.29161 1.2982 1.30478 1.31135 1.31792 1.32449 1.33105 1.33761 1.34417 1.35072 1.35726 1.3638 1.37034 1.37687 1.3834 1.38993 1.39645 1.40296 1.40948 1.41598 1.42249 1.42899 1.43548 1.44197 1.44846 1.45494 1.46142 1.46789 1.47436 1.48083 1.48729 1.49375 1.5002 1.50665 1.51309 1.51953 1.52597 1.5324 1.53883 1.54525 1.55167 1.56901 1.58627 1.60344 1.62053 1.63754 1.65447 1.67132 1.68808 1.70477 1.72137 1.73789 1.75432 1.77068 1.78695 1.80315 1.81925 1.83528 1.85123 1.86709 1.88288 1.89858 1.91419 1.92973 1.94519 1.96056 1.97585 1.99106 2.00619 2.02123 2.03619 2.05108 2.06588 2.08059 2.09523 2.10978 2.12425 2.13864 2.15295 2.16718 2.18132 2.20067 2.22111 2.24265 2.26528 2.28901 2.31384 2.33977 2.36679 2.3949 2.42411 2.45442 2.48583 2.51833 2.55193 2.58663 2.62242 2.65931 2.69729 2.73637 2.77655 2.81782 2.86019 2.90366 2.94822 2.99388 3.04064 3.08849 3.13744 3.18748 3.23862 3.29086 3.3442 3.39863 3.45415 3.51078 3.5685 3.62732 3.68723 3.74824 3.81034 0.95617 0.961108 0.965923 0.970615 0.975184 0.97963 0.983954 0.988154 0.992232 0.996187 1.00002 1.00373 1.00732 1.01078 1.01412 1.01734 1.02043 1.02341 1.02626 1.02898 1.03159 1.03407 1.03643 1.03866 1.04078 1.04277 1.04463 1.04638 1.048 1.0495 1.05087 1.05213 1.05326 1.05427 1.05515 1.05591 1.05655 1.05707 1.05746 1.05773 1.05788 1.0649 1.07187 1.07879 1.08566 1.09248 1.09925 1.10596 1.11263 1.11924 1.1258 1.13232 1.13878 1.14519 1.15154 1.15785 1.16411 1.17031 1.17647 1.18257 1.18862 1.19462 1.20057 1.20647 1.21232 1.21812 1.22386 1.22956 1.2352 1.24079 1.24633 1.25182 1.25726 1.26265 1.26799 1.27327 1.27851 1.28369 1.28882 1.29391 1.29894 1.30583 1.31271 1.31959 1.32647 1.33334 1.3402 1.34706 1.35392 1.36077 1.36762 1.37446 1.3813 1.38813 1.39496 1.40178 1.4086 1.41541 1.42222 1.42902 1.43582 1.44262 1.44941 1.45619 1.46297 1.46975 1.47652 1.48329 1.49005 1.49681 1.50356 1.51031 1.51705 1.52379 1.53052 1.53725 1.54398 1.5507 1.55741 1.56412 1.57083 1.58853 1.60615 1.6237 1.64118 1.65858 1.67591 1.69316 1.71033 1.72744 1.74446 1.76141 1.77829 1.79509 1.81181 1.82846 1.84504 1.86154 1.87796 1.89432 1.91059 1.92679 1.94292 1.95897 1.97494 1.99084 2.00667 2.02241 2.03809 2.05369 2.06921 2.08466 2.10004 2.11534 2.13056 2.14571 2.16079 2.17578 2.19071 2.20556 2.22033 2.239 2.25875 2.27958 2.30149 2.32449 2.34856 2.37372 2.39995 2.42727 2.45567 2.48515 2.51571 2.54736 2.58008 2.61388 2.64877 2.68474 2.72179 2.75991 2.79912 2.83942 2.88079 2.92324 2.96678 3.01139 3.05709 3.10387 3.15173 3.20067 3.25069 3.3018 3.35398 3.40725 3.46159 3.51702 3.57353 3.63112 3.68979 3.74954 3.81038 0.957366 0.962362 0.967234 0.971982 0.976606 0.981106 0.985483 0.989736 0.993864 0.997869 1.00175 1.00551 1.00914 1.01265 1.01604 1.0193 1.02244 1.02545 1.02834 1.03111 1.03375 1.03627 1.03867 1.04094 1.04309 1.04511 1.04701 1.04879 1.05044 1.05197 1.05337 1.05465 1.05581 1.05684 1.05775 1.05854 1.0592 1.05974 1.06015 1.06044 1.06061 1.06775 1.07484 1.08187 1.08886 1.0958 1.10268 1.10951 1.11629 1.12302 1.1297 1.13632 1.1429 1.14942 1.15589 1.16231 1.16868 1.175 1.18126 1.18747 1.19364 1.19975 1.2058 1.21181 1.21777 1.22367 1.22952 1.23532 1.24107 1.24677 1.25242 1.25801 1.26355 1.26905 1.27449 1.27987 1.28521 1.2905 1.29573 1.30091 1.30604 1.31323 1.32041 1.32758 1.33475 1.34192 1.34908 1.35623 1.36338 1.37052 1.37766 1.38479 1.39192 1.39905 1.40616 1.41328 1.42038 1.42749 1.43458 1.44167 1.44876 1.45584 1.46292 1.46999 1.47705 1.48411 1.49117 1.49822 1.50526 1.5123 1.51934 1.52637 1.53339 1.54041 1.54743 1.55443 1.56144 1.56844 1.57543 1.58242 1.5894 1.60744 1.62541 1.64332 1.66115 1.67892 1.69662 1.71425 1.73182 1.74931 1.76674 1.7841 1.80139 1.81861 1.83576 1.85285 1.86987 1.88682 1.9037 1.92051 1.93725 1.95393 1.97054 1.98708 2.00355 2.01995 2.03629 2.05256 2.06876 2.08489 2.10095 2.11694 2.13287 2.14873 2.16452 2.18024 2.19589 2.21147 2.22699 2.24244 2.25782 2.27583 2.2949 2.31504 2.33624 2.35851 2.38185 2.40625 2.43172 2.45826 2.48586 2.51452 2.54425 2.57505 2.60691 2.63984 2.67384 2.7089 2.74503 2.78222 2.82048 2.8598 2.90019 2.94165 2.98417 3.02776 3.07241 3.11813 3.16492 3.21277 3.26169 3.31167 3.36272 3.41484 3.46802 3.52226 3.57758 3.63395 3.6914 3.74991 3.80948 0.958485 0.963538 0.968467 0.97327 0.977949 0.982503 0.986932 0.991236 0.995416 0.99947 1.0034 1.0072 1.01088 1.01444 1.01787 1.02118 1.02436 1.02741 1.03034 1.03315 1.03583 1.03839 1.04082 1.04313 1.04531 1.04736 1.0493 1.0511 1.05279 1.05434 1.05578 1.05709 1.05827 1.05933 1.06026 1.06107 1.06175 1.06231 1.06275 1.06305 1.06324 1.0705 1.0777 1.08485 1.09196 1.099 1.106 1.11295 1.11984 1.12668 1.13347 1.1402 1.14689 1.15352 1.1601 1.16663 1.17311 1.17953 1.1859 1.19222 1.19849 1.20471 1.21087 1.21699 1.22305 1.22905 1.23501 1.24091 1.24677 1.25257 1.25831 1.26401 1.26965 1.27525 1.28079 1.28627 1.29171 1.29709 1.30242 1.3077 1.31293 1.3204 1.32787 1.33533 1.34279 1.35024 1.35768 1.36512 1.37255 1.37998 1.3874 1.39481 1.40222 1.40963 1.41703 1.42442 1.43181 1.43919 1.44656 1.45393 1.4613 1.46866 1.47601 1.48336 1.4907 1.49803 1.50536 1.51269 1.52001 1.52732 1.53463 1.54193 1.54923 1.55652 1.5638 1.57108 1.57835 1.58562 1.59288 1.60014 1.60739 1.62575 1.64404 1.66228 1.68045 1.69856 1.71661 1.7346 1.75253 1.77039 1.7882 1.80594 1.82362 1.84124 1.8588 1.8763 1.89374 1.91111 1.92843 1.94568 1.96287 1.98 1.99707 2.01407 2.03102 2.0479 2.06472 2.08148 2.09818 2.11482 2.1314 2.14791 2.16437 2.18076 2.19709 2.21336 2.22957 2.24572 2.2618 2.27783 2.29379 2.31115 2.32956 2.34902 2.36953 2.3911 2.41371 2.43737 2.46209 2.48785 2.51467 2.54254 2.57145 2.60142 2.63244 2.66451 2.69763 2.7318 2.76702 2.80329 2.84061 2.87898 2.91841 2.95888 3.0004 3.04298 3.0866 3.13128 3.17701 3.22378 3.27161 3.32049 3.37042 3.4214 3.47343 3.52651 3.58064 3.63582 3.69205 3.74933 3.80767 0.959525 0.964636 0.969621 0.97448 0.979213 0.98382 0.988301 0.992657 0.996886 1.00099 1.00497 1.00882 1.01255 1.01615 1.01962 1.02297 1.02619 1.02929 1.03226 1.03511 1.03782 1.04042 1.04289 1.04523 1.04744 1.04953 1.0515 1.05334 1.05505 1.05663 1.0581 1.05943 1.06064 1.06172 1.06268 1.06351 1.06422 1.0648 1.06525 1.06558 1.06578 1.07315 1.08047 1.08773 1.09494 1.1021 1.10921 1.11627 1.12327 1.13022 1.13711 1.14396 1.15075 1.15749 1.16418 1.17081 1.17739 1.18392 1.1904 1.19682 1.2032 1.20952 1.21578 1.222 1.22816 1.23427 1.24032 1.24633 1.25228 1.25818 1.26403 1.26982 1.27556 1.28125 1.28689 1.29247 1.298 1.30348 1.30891 1.31428 1.3196 1.32735 1.3351 1.34283 1.35057 1.35829 1.36601 1.37372 1.38143 1.38913 1.39683 1.40452 1.4122 1.41987 1.42754 1.43521 1.44287 1.45052 1.45816 1.4658 1.47343 1.48106 1.48868 1.4963 1.5039 1.51151 1.5191 1.52669 1.53428 1.54185 1.54942 1.55699 1.56455 1.5721 1.57965 1.58719 1.59472 1.60225 1.60977 1.61729 1.6248 1.64345 1.66204 1.68058 1.69907 1.7175 1.73588 1.7542 1.77247 1.79069 1.80884 1.82695 1.845 1.86299 1.88093 1.89882 1.91665 1.93443 1.95215 1.96982 1.98743 2.00499 2.0225 2.03994 2.05734 2.07468 2.09197 2.1092 2.12637 2.1435 2.16056 2.17758 2.19453 2.21144 2.22829 2.24508 2.26182 2.27851 2.29514 2.31171 2.32824 2.34497 2.36273 2.38153 2.40136 2.42223 2.44414 2.46708 2.49106 2.51607 2.54211 2.56919 2.59731 2.62646 2.65665 2.68788 2.72013 2.75343 2.78776 2.82312 2.85952 2.89695 2.93542 2.97493 3.01547 3.05705 3.09966 3.1433 3.18799 3.2337 3.28046 3.32824 3.37707 3.42693 3.47782 3.52975 3.58271 3.63671 3.69175 3.74782 3.80492 0.960488 0.965656 0.970697 0.97561 0.980397 0.985057 0.98959 0.993997 0.998276 1.00243 1.00645 1.01035 1.01412 1.01777 1.02129 1.02468 1.02794 1.03108 1.03409 1.03698 1.03973 1.04236 1.04487 1.04724 1.04949 1.05161 1.05361 1.05548 1.05722 1.05884 1.06032 1.06169 1.06292 1.06403 1.06501 1.06586 1.06659 1.06719 1.06766 1.06801 1.06823 1.07571 1.08313 1.09051 1.09783 1.10509 1.11231 1.11947 1.12658 1.13363 1.14064 1.14759 1.15448 1.16133 1.16812 1.17485 1.18154 1.18817 1.19475 1.20127 1.20774 1.21416 1.22053 1.22684 1.2331 1.23931 1.24546 1.25157 1.25761 1.26361 1.26955 1.27544 1.28128 1.28706 1.29279 1.29847 1.30409 1.30966 1.31518 1.32064 1.32606 1.33407 1.34209 1.35009 1.35809 1.36608 1.37407 1.38205 1.39002 1.39799 1.40595 1.4139 1.42185 1.42978 1.43772 1.44564 1.45356 1.46147 1.46938 1.47728 1.48517 1.49306 1.50094 1.50881 1.51668 1.52454 1.53239 1.54023 1.54807 1.55591 1.56373 1.57155 1.57936 1.58717 1.59497 1.60276 1.61055 1.61833 1.6261 1.63387 1.64163 1.66055 1.67942 1.69824 1.71702 1.73575 1.75443 1.77306 1.79165 1.81018 1.82867 1.84712 1.86551 1.88386 1.90216 1.92041 1.93861 1.95677 1.97487 1.99293 2.01095 2.02891 2.04683 2.0647 2.08252 2.10029 2.11802 2.1357 2.15333 2.17091 2.18844 2.20593 2.22337 2.24076 2.25811 2.2754 2.29265 2.30985 2.327 2.34411 2.36117 2.37728 2.39441 2.41256 2.43173 2.45193 2.47314 2.49537 2.51862 2.54289 2.56818 2.5945 2.62183 2.65018 2.67955 2.70995 2.74136 2.77379 2.80724 2.84171 2.87721 2.91372 2.95125 2.9898 3.02937 3.06997 3.11158 3.15421 3.19786 3.24254 3.28823 3.33494 3.38267 3.43143 3.4812 3.53199 3.5838 3.63664 3.69049 3.74536 3.80125 0.961374 0.966598 0.971694 0.976662 0.981502 0.986215 0.990799 0.995256 0.999585 1.00379 1.00786 1.0118 1.01562 1.01931 1.02287 1.02631 1.02961 1.03279 1.03584 1.03876 1.04156 1.04422 1.04676 1.04917 1.05145 1.05361 1.05564 1.05753 1.05931 1.06095 1.06246 1.06385 1.06511 1.06624 1.06725 1.06812 1.06887 1.06949 1.06998 1.07035 1.07058 1.07817 1.0857 1.09318 1.10061 1.10798 1.1153 1.12256 1.12977 1.13693 1.14403 1.15109 1.15808 1.16503 1.17192 1.17875 1.18554 1.19227 1.19894 1.20557 1.21214 1.21865 1.22511 1.23152 1.23788 1.24418 1.25043 1.25662 1.26277 1.26885 1.27489 1.28087 1.2868 1.29267 1.29849 1.30426 1.30997 1.31563 1.32124 1.32679 1.33229 1.34057 1.34884 1.35711 1.36536 1.37361 1.38186 1.39009 1.39832 1.40654 1.41476 1.42297 1.43117 1.43936 1.44754 1.45572 1.4639 1.47206 1.48022 1.48837 1.49651 1.50465 1.51278 1.5209 1.52901 1.53712 1.54522 1.55331 1.5614 1.56948 1.57755 1.58561 1.59367 1.60172 1.60976 1.6178 1.62583 1.63385 1.64186 1.64987 1.65787 1.67704 1.69616 1.71525 1.73429 1.75329 1.77225 1.79117 1.81005 1.82889 1.84769 1.86644 1.88516 1.90383 1.92247 1.94106 1.95961 1.97812 1.99659 2.01502 2.03341 2.05176 2.07006 2.08833 2.10655 2.12473 2.14288 2.16098 2.17904 2.19706 2.21504 2.23298 2.25087 2.26873 2.28654 2.30432 2.32205 2.33974 2.3574 2.37501 2.39258 2.40808 2.4246 2.44212 2.46064 2.48017 2.5007 2.52224 2.54479 2.56833 2.59289 2.61844 2.645 2.67257 2.70114 2.73072 2.7613 2.79288 2.82547 2.85907 2.89367 2.92927 2.96588 3.0035 3.04212 3.08174 3.12237 3.164 3.20664 3.25028 3.29493 3.34058 3.38724 3.4349 3.48356 3.53323 3.58391 3.63559 3.68828 3.74197 3.79666 0.962181 0.967461 0.972612 0.977635 0.982528 0.987293 0.991929 0.996435 1.00081 1.00506 1.00918 1.01317 1.01704 1.02077 1.02437 1.02785 1.0312 1.03441 1.0375 1.04046 1.04329 1.046 1.04857 1.05101 1.05333 1.05552 1.05757 1.0595 1.0613 1.06297 1.06451 1.06593 1.06721 1.06837 1.06939 1.07029 1.07106 1.0717 1.07221 1.07259 1.07285 1.08054 1.08817 1.09575 1.10328 1.11075 1.11817 1.12554 1.13285 1.14011 1.14731 1.15446 1.16155 1.1686 1.17558 1.18252 1.1894 1.19622 1.20299 1.20971 1.21637 1.22298 1.22954 1.23604 1.24249 1.24888 1.25522 1.26151 1.26774 1.27392 1.28004 1.28611 1.29213 1.29809 1.304 1.30985 1.31565 1.3214 1.32709 1.33273 1.33831 1.34684 1.35536 1.36388 1.37238 1.38088 1.38937 1.39786 1.40633 1.4148 1.42326 1.43171 1.44016 1.4486 1.45703 1.46545 1.47387 1.48227 1.49067 1.49906 1.50745 1.51583 1.5242 1.53256 1.54091 1.54926 1.5576 1.56593 1.57425 1.58257 1.59087 1.59917 1.60747 1.61575 1.62403 1.6323 1.64056 1.64882 1.65706 1.6653 1.67354 1.69292 1.71228 1.7316 1.75088 1.77014 1.78935 1.80854 1.82769 1.8468 1.86588 1.88493 1.90394 1.92292 1.94187 1.96078 1.97965 1.9985 2.01731 2.03608 2.05482 2.07353 2.0922 2.11084 2.12944 2.14801 2.16655 2.18505 2.20351 2.22195 2.24035 2.25871 2.27704 2.29534 2.3136 2.33183 2.35003 2.36819 2.38631 2.40441 2.42247 2.43739 2.4533 2.4702 2.48809 2.50697 2.52684 2.5477 2.56955 2.59239 2.61622 2.64103 2.66684 2.69363 2.72142 2.75019 2.77996 2.81071 2.84246 2.87519 2.90891 2.94362 2.97932 3.01601 3.05369 3.09236 3.13202 3.17267 3.21431 3.25694 3.30055 3.34516 3.39075 3.43734 3.48491 3.53348 3.58303 3.63357 3.68511 3.73763 3.79114 0.962911 0.968247 0.973453 0.978529 0.983475 0.988291 0.992978 0.997534 1.00196 1.00626 1.01042 1.01446 1.01837 1.02214 1.02579 1.02931 1.0327 1.03595 1.03908 1.04208 1.04495 1.04768 1.05029 1.05277 1.05512 1.05734 1.05942 1.06138 1.06321 1.06491 1.06648 1.06792 1.06922 1.0704 1.07145 1.07237 1.07316 1.07382 1.07435 1.07475 1.07502 1.08281 1.09054 1.09822 1.10585 1.11342 1.12094 1.1284 1.13581 1.14316 1.15046 1.1577 1.16489 1.17203 1.17911 1.18614 1.19311 1.20003 1.20689 1.2137 1.22046 1.22716 1.2338 1.24039 1.24693 1.25341 1.25984 1.26621 1.27253 1.2788 1.28501 1.29116 1.29726 1.30331 1.3093 1.31524 1.32112 1.32695 1.33273 1.33845 1.34411 1.35288 1.36164 1.3704 1.37915 1.38788 1.39661 1.40534 1.41405 1.42276 1.43146 1.44015 1.44883 1.4575 1.46617 1.47482 1.48347 1.49211 1.50075 1.50937 1.51799 1.5266 1.5352 1.54379 1.55237 1.56095 1.56952 1.57808 1.58663 1.59517 1.60371 1.61224 1.62076 1.62927 1.63777 1.64627 1.65475 1.66323 1.6717 1.68016 1.68862 1.70821 1.72777 1.7473 1.7668 1.78628 1.80573 1.82516 1.84455 1.86392 1.88326 1.90258 1.92187 1.94113 1.96036 1.97956 1.99874 2.01789 2.03702 2.05611 2.07518 2.09422 2.11324 2.13222 2.15118 2.17012 2.18902 2.2079 2.22675 2.24558 2.26437 2.28314 2.30188 2.3206 2.33928 2.35794 2.37658 2.39518 2.41376 2.43231 2.45084 2.46519 2.48051 2.49681 2.51408 2.53233 2.55155 2.57174 2.59291 2.61506 2.63817 2.66227 2.68733 2.71337 2.74039 2.76837 2.79734 2.82727 2.85818 2.89007 2.92293 2.95676 2.99157 3.02735 3.06411 3.10184 3.14054 3.18022 3.22087 3.2625 3.3051 3.34868 3.39323 3.43875 3.48525 3.53272 3.58117 3.63059 3.68098 3.73235 3.78469 0.963562 0.968954 0.974214 0.979344 0.984342 0.98921 0.993947 0.998553 1.00303 1.00737 1.01158 1.01567 1.01962 1.02344 1.02713 1.03069 1.03411 1.03741 1.04058 1.04361 1.04651 1.04929 1.05193 1.05444 1.05682 1.05907 1.06119 1.06317 1.06503 1.06676 1.06835 1.06981 1.07115 1.07235 1.07342 1.07436 1.07517 1.07584 1.07639 1.07681 1.07709 1.08498 1.09281 1.10059 1.10831 1.11598 1.12359 1.13114 1.13865 1.14609 1.15349 1.16082 1.1681 1.17533 1.1825 1.18962 1.19668 1.20369 1.21064 1.21754 1.22438 1.23117 1.2379 1.24458 1.2512 1.25777 1.26428 1.27074 1.27714 1.28349 1.28979 1.29602 1.30221 1.30834 1.31441 1.32043 1.32639 1.3323 1.33815 1.34395 1.34969 1.3587 1.36769 1.37668 1.38566 1.39462 1.40359 1.41254 1.42148 1.43041 1.43934 1.44826 1.45717 1.46607 1.47496 1.48384 1.49272 1.50158 1.51044 1.51929 1.52813 1.53696 1.54578 1.5546 1.5634 1.5722 1.58099 1.58977 1.59854 1.6073 1.61605 1.6248 1.63354 1.64226 1.65098 1.6597 1.6684 1.67709 1.68578 1.69445 1.70312 1.72288 1.74263 1.76235 1.78205 1.80173 1.82139 1.84103 1.86065 1.88025 1.89983 1.91939 1.93892 1.95844 1.97794 1.99742 2.01687 2.03631 2.05572 2.07512 2.09449 2.11385 2.13318 2.15249 2.17179 2.19106 2.21031 2.22954 2.24875 2.26794 2.28711 2.30626 2.32539 2.3445 2.36359 2.38265 2.4017 2.42073 2.43973 2.45872 2.47769 2.49148 2.50623 2.52194 2.53861 2.55624 2.57482 2.59437 2.61488 2.63634 2.65876 2.68214 2.70648 2.73178 2.75804 2.78526 2.81343 2.84257 2.87266 2.90371 2.93573 2.9687 3.00263 3.03751 3.07336 3.11017 3.14793 3.18665 3.22634 3.26698 3.30858 3.35114 3.39466 3.43913 3.48457 3.53096 3.57832 3.62663 3.6759 3.72613 3.77732 0.964137 0.969583 0.974897 0.98008 0.985131 0.990049 0.994836 0.999491 1.00401 1.0084 1.01266 1.01679 1.02079 1.02465 1.02838 1.03198 1.03545 1.03878 1.04198 1.04506 1.048 1.0508 1.05348 1.05602 1.05843 1.06071 1.06286 1.06488 1.06676 1.06851 1.07013 1.07162 1.07298 1.0742 1.07529 1.07625 1.07708 1.07778 1.07834 1.07878 1.07908 1.08706 1.09498 1.10285 1.11067 1.11843 1.12613 1.13378 1.14137 1.14891 1.15639 1.16381 1.17118 1.1785 1.18576 1.19296 1.20011 1.20721 1.21425 1.22123 1.22816 1.23503 1.24184 1.2486 1.25531 1.26196 1.26855 1.27509 1.28158 1.28801 1.29438 1.3007 1.30696 1.31316 1.31932 1.32541 1.33145 1.33744 1.34337 1.34924 1.35506 1.36429 1.3735 1.38271 1.39191 1.4011 1.41028 1.41946 1.42862 1.43777 1.44692 1.45605 1.46518 1.4743 1.48341 1.49251 1.5016 1.51068 1.51975 1.52881 1.53787 1.54691 1.55595 1.56498 1.57399 1.583 1.592 1.60099 1.60997 1.61895 1.62791 1.63686 1.64581 1.65474 1.66367 1.67259 1.6815 1.6904 1.69929 1.70817 1.71704 1.73696 1.75686 1.77674 1.79662 1.81648 1.83633 1.85616 1.87598 1.89578 1.91558 1.93536 1.95512 1.97487 1.99461 2.01433 2.03405 2.05374 2.07343 2.0931 2.11275 2.13239 2.15202 2.17164 2.19124 2.21083 2.2304 2.24996 2.26951 2.28905 2.30857 2.32807 2.34756 2.36704 2.38651 2.40596 2.4254 2.44482 2.46424 2.48363 2.50302 2.51627 2.53046 2.5456 2.56168 2.5787 2.59667 2.61558 2.63544 2.65624 2.67798 2.70066 2.72429 2.74887 2.77438 2.80084 2.82825 2.85659 2.88589 2.91612 2.9473 2.97942 3.01249 3.0465 3.08145 3.11735 3.15419 3.19197 3.2307 3.27037 3.31098 3.35254 3.39504 3.43849 3.48288 3.52821 3.57448 3.6217 3.66987 3.71897 3.76903 0.964633 0.970134 0.975502 0.980737 0.985839 0.990809 0.995645 1.00035 1.00492 1.00936 1.01366 1.01783 1.02187 1.02578 1.02955 1.03319 1.03669 1.04007 1.04331 1.04642 1.04939 1.05223 1.05494 1.05752 1.05996 1.06227 1.06445 1.06649 1.0684 1.07018 1.07183 1.07334 1.07472 1.07597 1.07708 1.07806 1.07891 1.07962 1.0802 1.08065 1.08097 1.08904 1.09706 1.10501 1.11292 1.12077 1.12856 1.13629 1.14397 1.1516 1.15917 1.16668 1.17413 1.18154 1.18888 1.19617 1.2034 1.21058 1.2177 1.22476 1.23177 1.23872 1.24562 1.25246 1.25925 1.26598 1.27265 1.27927 1.28583 1.29234 1.29879 1.30518 1.31152 1.3178 1.32402 1.33019 1.33631 1.34237 1.34837 1.35432 1.36021 1.36965 1.37908 1.3885 1.39791 1.40732 1.41671 1.42609 1.43547 1.44483 1.45419 1.46353 1.47287 1.48219 1.49151 1.50082 1.51011 1.5194 1.52868 1.53795 1.54721 1.55646 1.5657 1.57493 1.58415 1.59336 1.60256 1.61175 1.62094 1.63011 1.63927 1.64843 1.65757 1.66671 1.67583 1.68495 1.69405 1.70315 1.71223 1.72131 1.73038 1.75042 1.77046 1.79049 1.81051 1.83053 1.85054 1.87054 1.89054 1.91053 1.93051 1.95049 1.97045 1.99042 2.01037 2.03032 2.05026 2.0702 2.09013 2.11005 2.12996 2.14987 2.16977 2.18967 2.20955 2.22943 2.24931 2.26917 2.28903 2.30889 2.32873 2.34857 2.36841 2.38823 2.40805 2.42787 2.44767 2.46747 2.48726 2.50705 2.52683 2.53955 2.5532 2.56778 2.58329 2.59972 2.61709 2.63538 2.6546 2.67475 2.69582 2.71783 2.74076 2.76462 2.78941 2.81513 2.84178 2.86935 2.89786 2.92729 2.95765 2.98894 3.02116 3.0543 3.08837 3.12338 3.15931 3.19616 3.23395 3.27267 3.31231 3.35288 3.39438 3.43681 3.48017 3.52445 3.56967 3.61581 3.66288 3.71088 3.7598 0.965052 0.970607 0.976028 0.981316 0.986469 0.991489 0.996374 1.00113 1.00574 1.01023 1.01458 1.01879 1.02287 1.02682 1.03063 1.03431 1.03786 1.04127 1.04455 1.04769 1.0507 1.05358 1.05632 1.05893 1.0614 1.06374 1.06595 1.06802 1.06996 1.07176 1.07343 1.07497 1.07637 1.07764 1.07877 1.07978 1.08064 1.08137 1.08197 1.08244 1.08277 1.09093 1.09903 1.10708 1.11507 1.123 1.13088 1.1387 1.14646 1.15417 1.16182 1.16942 1.17695 1.18444 1.19186 1.19923 1.20655 1.2138 1.221 1.22815 1.23523 1.24226 1.24924 1.25616 1.26302 1.26982 1.27657 1.28327 1.2899 1.29648 1.30301 1.30947 1.31588 1.32224 1.32853 1.33478 1.34096 1.34709 1.35316 1.35918 1.36514 1.37478 1.38442 1.39405 1.40366 1.41327 1.42286 1.43245 1.44203 1.45159 1.46115 1.47069 1.48023 1.48975 1.49927 1.50877 1.51827 1.52775 1.53723 1.54669 1.55615 1.56559 1.57503 1.58445 1.59387 1.60327 1.61267 1.62205 1.63143 1.64079 1.65015 1.65949 1.66882 1.67815 1.68746 1.69677 1.70606 1.71534 1.72462 1.73388 1.74314 1.76328 1.78343 1.80358 1.82373 1.84388 1.86403 1.88418 1.90433 1.92448 1.94463 1.96478 1.98493 2.00507 2.02522 2.04537 2.06552 2.08567 2.10582 2.12597 2.14612 2.16627 2.18642 2.20657 2.22672 2.24687 2.26702 2.28717 2.30732 2.32747 2.34762 2.36777 2.38792 2.40807 2.42822 2.44837 2.46852 2.48867 2.50882 2.52897 2.54912 2.56133 2.57445 2.58849 2.60343 2.6193 2.63607 2.65376 2.67236 2.69187 2.7123 2.73364 2.75589 2.77905 2.80313 2.82812 2.85403 2.88085 2.90858 2.93722 2.96678 2.99725 3.02863 3.06093 3.09414 3.12826 3.16329 3.19924 3.2361 3.27388 3.31256 3.35216 3.39268 3.4341 3.47644 3.5197 3.56386 3.60894 3.65493 3.70184 3.74965 0.965392 0.971002 0.976476 0.981815 0.987019 0.992089 0.997023 1.00182 1.00649 1.01102 1.01541 1.01967 1.02379 1.02778 1.03164 1.03536 1.03894 1.04239 1.04571 1.04889 1.05193 1.05484 1.05761 1.06025 1.06276 1.06513 1.06736 1.06946 1.07143 1.07326 1.07495 1.07651 1.07794 1.07922 1.08038 1.0814 1.08228 1.08303 1.08365 1.08413 1.08447 1.09272 1.1009 1.10903 1.11711 1.12512 1.13308 1.14099 1.14883 1.15662 1.16435 1.17203 1.17964 1.18721 1.19471 1.20216 1.20955 1.21688 1.22416 1.23138 1.23854 1.24565 1.25269 1.25969 1.26662 1.2735 1.28032 1.28709 1.29379 1.30045 1.30704 1.31358 1.32006 1.32648 1.33285 1.33916 1.34541 1.3516 1.35774 1.36382 1.36985 1.37969 1.38952 1.39934 1.40916 1.41896 1.42875 1.43852 1.44829 1.45805 1.4678 1.47753 1.48726 1.49698 1.50668 1.51638 1.52606 1.53573 1.5454 1.55505 1.56469 1.57432 1.58394 1.59355 1.60315 1.61274 1.62232 1.63189 1.64145 1.65099 1.66053 1.67005 1.67957 1.68907 1.69857 1.70805 1.71752 1.72699 1.73644 1.74588 1.75531 1.77554 1.79578 1.81602 1.83628 1.85653 1.8768 1.89707 1.91735 1.93763 1.95793 1.97823 1.99853 2.01885 2.03917 2.05949 2.07983 2.10017 2.12051 2.14087 2.16123 2.1816 2.20197 2.22235 2.24274 2.26314 2.28354 2.30395 2.32437 2.34479 2.36522 2.38565 2.4061 2.42655 2.44701 2.46747 2.48794 2.50842 2.5289 2.54939 2.56989 2.5816 2.59421 2.60772 2.62212 2.63742 2.65362 2.67072 2.68872 2.70761 2.7274 2.74809 2.76967 2.79216 2.81554 2.83982 2.865 2.89107 2.91804 2.94592 2.97468 3.00435 3.03491 3.06638 3.09873 3.13199 3.16615 3.2012 3.23715 3.274 3.31174 3.35039 3.38993 3.43037 3.47171 3.51394 3.55707 3.6011 3.64603 3.69186 3.73858 0.965655 0.971318 0.976845 0.982236 0.987491 0.992609 0.997592 1.00244 1.00715 1.01172 1.01616 1.02047 1.02463 1.02866 1.03256 1.03632 1.03994 1.04343 1.04678 1.04999 1.05307 1.05601 1.05882 1.06149 1.06403 1.06642 1.06869 1.07081 1.0728 1.07466 1.07638 1.07796 1.07941 1.08072 1.08189 1.08293 1.08384 1.0846 1.08523 1.08573 1.08609 1.09441 1.10268 1.11089 1.11904 1.12714 1.13518 1.14316 1.15108 1.15895 1.16676 1.17451 1.1822 1.18984 1.19742 1.20494 1.21241 1.21981 1.22716 1.23446 1.24169 1.24887 1.25599 1.26305 1.27006 1.27701 1.2839 1.29073 1.29751 1.30423 1.31089 1.31749 1.32404 1.33053 1.33696 1.34333 1.34965 1.35591 1.36211 1.36826 1.37434 1.38437 1.39439 1.4044 1.4144 1.42438 1.43435 1.44432 1.45427 1.46421 1.47414 1.48406 1.49397 1.50386 1.51375 1.52362 1.53349 1.54334 1.55318 1.56301 1.57283 1.58264 1.59244 1.60223 1.612 1.62177 1.63152 1.64126 1.65099 1.66071 1.67042 1.68012 1.68981 1.69948 1.70915 1.7188 1.72844 1.73808 1.7477 1.75731 1.76691 1.78719 1.8075 1.82781 1.84814 1.86849 1.88884 1.90922 1.9296 1.95 1.97041 1.99084 2.01128 2.03173 2.0522 2.07268 2.09317 2.11368 2.1342 2.15474 2.17529 2.19585 2.21643 2.23702 2.25762 2.27824 2.29887 2.31952 2.34017 2.36085 2.38153 2.40223 2.42295 2.44367 2.46441 2.48517 2.50594 2.52672 2.54751 2.56832 2.58915 2.60037 2.61248 2.62548 2.63935 2.65411 2.66975 2.68627 2.70367 2.72196 2.74113 2.76118 2.78212 2.80394 2.82664 2.85022 2.87468 2.90003 2.92626 2.95337 2.98137 3.01024 3.04 3.07065 3.10217 3.13458 3.16787 3.20204 3.23709 3.27303 3.30985 3.34755 3.38614 3.4256 3.46595 3.50718 3.5493 3.5923 3.63618 3.68094 3.72658 0.965841 0.971557 0.977136 0.982577 0.987882 0.99305 0.998081 1.00297 1.00773 1.01235 1.01683 1.02118 1.02539 1.02946 1.0334 1.03719 1.04085 1.04438 1.04776 1.05101 1.05413 1.0571 1.05994 1.06264 1.06521 1.06763 1.06993 1.07208 1.0741 1.07597 1.07772 1.07932 1.08079 1.08212 1.08332 1.08437 1.0853 1.08608 1.08672 1.08723 1.08761 1.09601 1.10436 1.11264 1.12087 1.12905 1.13716 1.14522 1.15322 1.16116 1.16904 1.17687 1.18463 1.19234 1.19999 1.20759 1.21512 1.2226 1.23002 1.23738 1.24469 1.25193 1.25912 1.26625 1.27333 1.28034 1.2873 1.2942 1.30104 1.30782 1.31455 1.32122 1.32783 1.33438 1.34087 1.34731 1.35369 1.36001 1.36627 1.37247 1.37862 1.38883 1.39902 1.40921 1.41938 1.42954 1.43969 1.44983 1.45996 1.47007 1.48018 1.49027 1.50035 1.51042 1.52047 1.53052 1.54055 1.55058 1.56059 1.57059 1.58058 1.59055 1.60052 1.61047 1.62041 1.63034 1.64026 1.65017 1.66007 1.66995 1.67982 1.68968 1.69953 1.70937 1.7192 1.72901 1.73882 1.74861 1.75839 1.76816 1.77792 1.79824 1.81859 1.83895 1.85934 1.87974 1.90017 1.92062 1.94108 1.96157 1.98208 2.00261 2.02316 2.04373 2.06432 2.08493 2.10556 2.12622 2.14689 2.16758 2.1883 2.20903 2.22978 2.25056 2.27136 2.29217 2.31301 2.33387 2.35474 2.37564 2.39656 2.4175 2.43846 2.45944 2.48044 2.50146 2.52251 2.54357 2.56465 2.58576 2.60688 2.61764 2.62926 2.64176 2.65512 2.66935 2.68444 2.7004 2.71723 2.73493 2.75349 2.77292 2.79322 2.81439 2.83642 2.85932 2.88309 2.90772 2.93322 2.95959 2.98683 3.01493 3.0439 3.07374 3.10444 3.13601 3.16845 3.20176 3.23593 3.27097 3.30688 3.34366 3.3813 3.41981 3.45919 3.49943 3.54054 3.58252 3.62536 3.66908 3.71366 0.965948 0.971717 0.977348 0.98284 0.988195 0.993412 0.99849 1.00343 1.00823 1.0129 1.01742 1.02181 1.02606 1.03018 1.03415 1.03799 1.04168 1.04524 1.04867 1.05195 1.0551 1.05811 1.06098 1.06371 1.0663 1.06876 1.07108 1.07326 1.0753 1.0772 1.07897 1.08059 1.08208 1.08344 1.08465 1.08573 1.08666 1.08746 1.08813 1.08865 1.08903 1.09751 1.10593 1.1143 1.1226 1.13085 1.13903 1.14716 1.15523 1.16324 1.1712 1.17909 1.18693 1.19471 1.20243 1.21009 1.2177 1.22524 1.23273 1.24016 1.24753 1.25484 1.26209 1.26929 1.27643 1.2835 1.29052 1.29749 1.30439 1.31124 1.31802 1.32475 1.33142 1.33803 1.34459 1.35108 1.35752 1.3639 1.37022 1.37648 1.38268 1.39306 1.40342 1.41377 1.42411 1.43444 1.44476 1.45506 1.46535 1.47563 1.4859 1.49616 1.5064 1.51663 1.52685 1.53706 1.54726 1.55744 1.56761 1.57777 1.58792 1.59805 1.60818 1.61829 1.62839 1.63848 1.64855 1.65862 1.66867 1.67871 1.68873 1.69875 1.70875 1.71874 1.72872 1.73869 1.74865 1.75859 1.76852 1.77844 1.78835 1.80868 1.82905 1.84944 1.86985 1.8903 1.91077 1.93127 1.9518 1.97235 1.99293 2.01354 2.03418 2.05484 2.07553 2.09625 2.117 2.13777 2.15857 2.1794 2.20025 2.22113 2.24204 2.26298 2.28395 2.30494 2.32596 2.347 2.36808 2.38918 2.41031 2.43146 2.45264 2.47385 2.49509 2.51636 2.53765 2.55897 2.58032 2.60169 2.62309 2.6334 2.64456 2.65656 2.66943 2.68314 2.6977 2.71312 2.72939 2.74651 2.76448 2.78331 2.80298 2.82351 2.84489 2.86712 2.89021 2.91415 2.93893 2.96457 2.99107 3.01841 3.0466 3.07565 3.10555 3.1363 3.16791 3.20036 3.23367 3.26783 3.30284 3.3387 3.37542 3.41298 3.4514 3.49067 3.5308 3.57177 3.6136 3.65628 3.69981 0.965978 0.971799 0.977481 0.983024 0.988428 0.993693 0.998819 1.00381 1.00865 1.01336 1.01793 1.02236 1.02665 1.03081 1.03482 1.0387 1.04243 1.04603 1.04948 1.0528 1.05598 1.05902 1.06192 1.06469 1.06731 1.06979 1.07214 1.07434 1.07641 1.07834 1.08013 1.08178 1.08329 1.08466 1.08589 1.08699 1.08794 1.08876 1.08943 1.08997 1.09037 1.09892 1.10741 1.11585 1.12422 1.13254 1.14079 1.14899 1.15713 1.16521 1.17323 1.1812 1.1891 1.19694 1.20473 1.21246 1.22013 1.22774 1.23529 1.24278 1.25021 1.25759 1.2649 1.27216 1.27936 1.2865 1.29358 1.3006 1.30756 1.31447 1.32131 1.3281 1.33482 1.34149 1.3481 1.35465 1.36114 1.36758 1.37395 1.38027 1.38652 1.39706 1.40758 1.41809 1.42859 1.43908 1.44955 1.46001 1.47046 1.48089 1.49132 1.50173 1.51213 1.52251 1.53289 1.54325 1.55359 1.56393 1.57425 1.58456 1.59486 1.60515 1.61542 1.62568 1.63593 1.64616 1.65639 1.6666 1.6768 1.68698 1.69715 1.70732 1.71746 1.7276 1.73772 1.74783 1.75793 1.76802 1.77809 1.78815 1.7982 1.81852 1.83888 1.85927 1.8797 1.90016