<?xml version="1.0"?> 
<VTKFile type="StructuredGrid" version="0.1"> 
<StructuredGrid WholeExtent="0 200 0 200 0 0"> 
<Piece Extent="0 200 0 200 0 0"> 
<PointData Scalars="Stress components">
<DataArray type="Float32" Name="sigma_xx" format="ascii" NumberOfComponents="1"> 
7.81718 7.72227 7.62841 7.53562 7.4439 7.35323 7.26363 7.17509 7.08762 7.0012 6.91585 6.83156 6.74833 6.66617 6.58507 6.50503 6.42606 6.34814 6.27129 6.19551 6.12078 6.04712 5.97452 5.90298 5.83251 5.7631 5.69475 5.62746 5.56124 5.49608 5.43198 5.36894 5.30697 5.24606 5.18621 5.12742 5.0697 5.01304 4.95744 4.90291 4.84944 4.84161 4.83357 4.82532 4.81684 4.80815 4.79925 4.79012 4.78078 4.77122 4.76145 4.75146 4.74125 4.73083 4.72019 4.70933 4.69826 4.68697 4.67546 4.66374 4.6518 4.63964 4.62727 4.61468 4.60187 4.58885 4.57561 4.56215 4.54848 4.53459 4.52048 4.50616 4.49162 4.47686 4.46189 4.4467 4.43129 4.41567 4.39983 4.38378 4.3675 4.36646 4.36545 4.36447 4.36352 4.36261 4.36172 4.36086 4.36004 4.35925 4.35848 4.35775 4.35705 4.35638 4.35574 4.35513 4.35455 4.35401 4.35349 4.35301 4.35256 4.35213 4.35174 4.35138 4.35105 4.35075 4.35048 4.35025 4.35004 4.34987 4.34972 4.34961 4.34953 4.34947 4.34945 4.34946 4.34951 4.34958 4.34968 4.34981 4.34998 4.3497 4.34939 4.34906 4.34871 4.34834 4.34795 4.34753 4.34709 4.34663 4.34615 4.34565 4.34512 4.34457 4.344 4.34341 4.3428 4.34216 4.34151 4.34083 4.34013 4.3394 4.33866 4.33789 4.3371 4.33629 4.33546 4.3346 4.33373 4.33283 4.33191 4.33096 4.33 4.32901 4.328 4.32697 4.32592 4.32485 4.32375 4.32263 4.32149 4.3216 4.32172 4.32184 4.32197 4.3221 4.32225 4.32239 4.32255 4.3227 4.32287 4.32304 4.32322 4.3234 4.32359 4.32379 4.32399 4.3242 4.32442 4.32464 4.32486 4.3251 4.32534 4.32558 4.32583 4.32609 4.32636 4.32663 4.3269 4.32719 4.32747 4.32777 4.32807 4.32838 4.32869 4.32901 4.32934 4.32967 4.33001 4.33035 4.3307 7.5579 7.46929 7.38171 7.29516 7.20964 7.12514 7.04166 6.95921 6.87779 6.7974 6.71803 6.63968 6.56236 6.48607 6.41081 6.33657 6.26335 6.19117 6.12 6.04987 5.98076 5.91268 5.84562 5.77959 5.71458 5.6506 5.58765 5.52572 5.46482 5.40495 5.3461 5.28828 5.23148 5.17571 5.12097 5.06725 5.01456 4.96289 4.91225 4.86264 4.81405 4.80642 4.7986 4.79056 4.78233 4.77388 4.76524 4.75638 4.74732 4.73806 4.72859 4.71892 4.70904 4.69896 4.68867 4.67818 4.66748 4.65658 4.64547 4.63415 4.62264 4.61091 4.59898 4.58685 4.57451 4.56197 4.54922 4.53627 4.52311 4.50974 4.49618 4.4824 4.46842 4.45424 4.43985 4.42526 4.41046 4.39545 4.38025 4.36483 4.34921 4.34809 4.34701 4.34595 4.34492 4.34392 4.34296 4.34202 4.34111 4.34023 4.33938 4.33856 4.33777 4.33701 4.33628 4.33558 4.33491 4.33427 4.33366 4.33308 4.33253 4.33201 4.33152 4.33106 4.33063 4.33023 4.32986 4.32952 4.32921 4.32892 4.32867 4.32845 4.32826 4.3281 4.32796 4.32786 4.32779 4.32775 4.32773 4.32775 4.3278 4.3275 4.32718 4.32684 4.32648 4.3261 4.3257 4.32527 4.32483 4.32436 4.32388 4.32337 4.32284 4.32229 4.32172 4.32113 4.32052 4.31988 4.31923 4.31855 4.31786 4.31714 4.3164 4.31564 4.31486 4.31406 4.31324 4.31239 4.31153 4.31064 4.30973 4.30881 4.30786 4.30689 4.30589 4.30488 4.30385 4.3028 4.30172 4.30062 4.29951 4.2996 4.29969 4.29979 4.2999 4.30001 4.30013 4.30026 4.30039 4.30053 4.30067 4.30082 4.30098 4.30114 4.30131 4.30148 4.30166 4.30184 4.30204 4.30223 4.30244 4.30265 4.30286 4.30308 4.30331 4.30354 4.30378 4.30403 4.30428 4.30454 4.3048 4.30507 4.30535 4.30563 4.30592 4.30621 4.30651 4.30681 4.30713 4.30744 4.30777 7.30525 7.22279 7.14132 7.06084 6.98135 6.90285 6.82534 6.74882 6.67328 6.59874 6.52519 6.45262 6.38105 6.31046 6.24086 6.17226 6.10464 6.03801 5.97237 5.90772 5.84407 5.7814 5.71972 5.65902 5.59932 5.54061 5.48289 5.42616 5.37041 5.31566 5.26189 5.20912 5.15733 5.10654 5.05673 5.00791 4.96009 4.91325 4.8674 4.82254 4.77867 4.77124 4.76362 4.75581 4.7478 4.7396 4.7312 4.72261 4.71383 4.70485 4.69568 4.68632 4.67677 4.66702 4.65707 4.64694 4.63661 4.62608 4.61537 4.60446 4.59335 4.58206 4.57057 4.55888 4.54701 4.53494 4.52267 4.51022 4.49757 4.48472 4.47169 4.45845 4.44503 4.43141 4.4176 4.4036 4.3894 4.37501 4.36042 4.34565 4.33067 4.32949 4.32833 4.32719 4.32609 4.32502 4.32397 4.32296 4.32197 4.32101 4.32008 4.31918 4.31831 4.31746 4.31665 4.31586 4.3151 4.31437 4.31367 4.313 4.31236 4.31175 4.31116 4.31061 4.31008 4.30958 4.30911 4.30867 4.30826 4.30787 4.30752 4.30719 4.30689 4.30663 4.30639 4.30618 4.30599 4.30584 4.30571 4.30562 4.30555 4.30524 4.30491 4.30456 4.30419 4.3038 4.30339 4.30296 4.30251 4.30204 4.30155 4.30104 4.30051 4.29996 4.29939 4.2988 4.29819 4.29755 4.2969 4.29623 4.29554 4.29483 4.2941 4.29334 4.29257 4.29178 4.29097 4.29013 4.28928 4.28841 4.28752 4.2866 4.28567 4.28472 4.28374 4.28275 4.28174 4.2807 4.27965 4.27857 4.27748 4.27755 4.27763 4.27771 4.2778 4.27789 4.27799 4.27809 4.2782 4.27832 4.27844 4.27857 4.27871 4.27885 4.27899 4.27914 4.2793 4.27946 4.27963 4.27981 4.27999 4.28017 4.28037 4.28056 4.28077 4.28098 4.28119 4.28142 4.28164 4.28188 4.28211 4.28236 4.28261 4.28287 4.28313 4.2834 4.28367 4.28395 4.28424 4.28453 4.28482 7.05925 6.98277 6.90724 6.83267 6.75905 6.68638 6.61466 6.5439 6.47409 6.40523 6.33733 6.27038 6.20438 6.13934 6.07524 6.0121 5.94992 5.88868 5.8284 5.76907 5.7107 5.65328 5.59681 5.54129 5.48673 5.43312 5.38046 5.32876 5.278 5.22821 5.17936 5.13147 5.08453 5.03854 4.9935 4.94942 4.90629 4.86412 4.8229 4.78263 4.74331 4.73607 4.72865 4.72104 4.71326 4.70529 4.69714 4.68881 4.68029 4.6716 4.66272 4.65366 4.64442 4.635 4.6254 4.61561 4.60565 4.5955 4.58516 4.57465 4.56396 4.55308 4.54202 4.53078 4.51936 4.50776 4.49597 4.48401 4.47186 4.45953 4.44701 4.43432 4.42144 4.40838 4.39515 4.38172 4.36812 4.35434 4.34037 4.32622 4.31189 4.31063 4.30941 4.30821 4.30703 4.30589 4.30477 4.30368 4.30262 4.30158 4.30058 4.2996 4.29865 4.29772 4.29683 4.29596 4.29512 4.2943 4.29352 4.29276 4.29203 4.29133 4.29066 4.29001 4.28939 4.2888 4.28823 4.2877 4.28719 4.28671 4.28626 4.28583 4.28543 4.28506 4.28472 4.28441 4.28412 4.28386 4.28363 4.28342 4.28325 4.28293 4.28259 4.28223 4.28185 4.28145 4.28103 4.2806 4.28014 4.27966 4.27917 4.27866 4.27812 4.27757 4.277 4.27641 4.2758 4.27517 4.27453 4.27386 4.27317 4.27247 4.27174 4.271 4.27023 4.26945 4.26865 4.26783 4.26699 4.26613 4.26525 4.26436 4.26344 4.2625 4.26155 4.26057 4.25958 4.25857 4.25754 4.25648 4.25541 4.25547 4.25552 4.25559 4.25565 4.25573 4.25581 4.25589 4.25598 4.25608 4.25618 4.25629 4.2564 4.25652 4.25665 4.25678 4.25691 4.25706 4.2572 4.25736 4.25751 4.25768 4.25785 4.25802 4.25821 4.25839 4.25859 4.25878 4.25899 4.2592 4.25941 4.25963 4.25986 4.26009 4.26033 4.26057 4.26082 4.26108 4.26134 4.2616 4.26187 6.81989 6.74922 6.67947 6.61064 6.54272 6.47572 6.40964 6.34447 6.28022 6.21688 6.15446 6.09296 6.03237 5.9727 5.91394 5.85611 5.79919 5.74318 5.68809 5.63392 5.58066 5.52832 5.4769 5.42639 5.3768 5.32812 5.28037 5.23352 5.1876 5.14259 5.0985 5.05532 5.01306 4.97171 4.93129 4.89178 4.85318 4.8155 4.77874 4.74289 4.70796 4.7009 4.69367 4.68627 4.6787 4.67096 4.66305 4.65497 4.64672 4.6383 4.62971 4.62095 4.61202 4.60292 4.59365 4.5842 4.57459 4.56481 4.55486 4.54474 4.53444 4.52398 4.51335 4.50254 4.49157 4.48043 4.46911 4.45763 4.44598 4.43415 4.42216 4.40999 4.39766 4.38516 4.37248 4.35964 4.34662 4.33343 4.32008 4.30655 4.29286 4.29154 4.29025 4.28898 4.28774 4.28653 4.28535 4.28419 4.28306 4.28195 4.28087 4.27982 4.2788 4.2778 4.27683 4.27588 4.27496 4.27407 4.2732 4.27236 4.27155 4.27076 4.27 4.26927 4.26857 4.26789 4.26723 4.26661 4.26601 4.26543 4.26489 4.26437 4.26387 4.26341 4.26297 4.26255 4.26217 4.26181 4.26147 4.26117 4.26089 4.26055 4.2602 4.25983 4.25944 4.25904 4.25861 4.25817 4.25771 4.25723 4.25673 4.25622 4.25568 4.25513 4.25456 4.25397 4.25337 4.25274 4.2521 4.25144 4.25075 4.25006 4.24934 4.2486 4.24785 4.24708 4.24629 4.24548 4.24465 4.24381 4.24295 4.24207 4.24117 4.24025 4.23931 4.23836 4.23738 4.23639 4.23538 4.23436 4.23331 4.23334 4.23338 4.23343 4.23348 4.23353 4.23359 4.23366 4.23373 4.23381 4.23389 4.23398 4.23407 4.23417 4.23428 4.23439 4.2345 4.23462 4.23475 4.23488 4.23502 4.23516 4.23531 4.23546 4.23562 4.23579 4.23596 4.23613 4.23631 4.2365 4.23669 4.23689 4.23709 4.2373 4.23752 4.23774 4.23796 4.23819 4.23843 4.23867 4.23892 6.58717 6.52215 6.45801 6.39476 6.33238 6.27088 6.21026 6.15052 6.09166 6.03368 5.97657 5.92035 5.86501 5.81055 5.75697 5.70427 5.65244 5.6015 5.55144 5.50225 5.45395 5.40653 5.35998 5.31432 5.26954 5.22563 5.18261 5.14046 5.09919 5.05881 5.0193 4.98068 4.94293 4.90606 4.87008 4.83497 4.80074 4.76739 4.73493 4.70334 4.67263 4.66574 4.6587 4.6515 4.64414 4.63662 4.62894 4.62111 4.61311 4.60496 4.59665 4.58818 4.57955 4.57076 4.56182 4.55271 4.54345 4.53403 4.52445 4.51471 4.50481 4.49476 4.48454 4.47417 4.46364 4.45295 4.4421 4.43109 4.41993 4.40861 4.39712 4.38548 4.37368 4.36172 4.34961 4.33733 4.3249 4.31231 4.29955 4.28665 4.27358 4.2722 4.27085 4.26953 4.26823 4.26695 4.26571 4.26448 4.26329 4.26212 4.26097 4.25985 4.25875 4.25769 4.25664 4.25562 4.25463 4.25366 4.25272 4.25181 4.25092 4.25005 4.24921 4.2484 4.24761 4.24684 4.24611 4.2454 4.24471 4.24405 4.24341 4.2428 4.24222 4.24166 4.24113 4.24062 4.24014 4.23968 4.23925 4.23884 4.23846 4.23812 4.23776 4.23738 4.23698 4.23657 4.23614 4.23569 4.23523 4.23474 4.23424 4.23373 4.23319 4.23264 4.23207 4.23148 4.23088 4.23026 4.22962 4.22896 4.22829 4.2276 4.22689 4.22616 4.22542 4.22466 4.22388 4.22309 4.22227 4.22144 4.2206 4.21973 4.21885 4.21795 4.21703 4.2161 4.21515 4.21418 4.21319 4.21219 4.21117 4.21118 4.2112 4.21123 4.21126 4.2113 4.21134 4.21139 4.21144 4.2115 4.21157 4.21164 4.21171 4.21179 4.21188 4.21197 4.21206 4.21216 4.21227 4.21238 4.2125 4.21262 4.21275 4.21288 4.21302 4.21316 4.21331 4.21346 4.21362 4.21379 4.21396 4.21413 4.21431 4.2145 4.21469 4.21489 4.21509 4.2153 4.21551 4.21573 4.21595 6.3611 6.30156 6.24287 6.18502 6.12801 6.07184 6.01652 5.96205 5.90841 5.85562 5.80367 5.75257 5.70231 5.65289 5.60431 5.55658 5.50969 5.46365 5.41844 5.37409 5.33057 5.2879 5.24607 5.20508 5.16494 5.12564 5.08718 5.04956 5.01279 4.97687 4.94178 4.90754 4.87414 4.84159 4.80988 4.77901 4.74898 4.7198 4.69146 4.66396 4.63731 4.63059 4.62373 4.61672 4.60956 4.60226 4.59481 4.58721 4.57947 4.57157 4.56353 4.55535 4.54702 4.53854 4.52991 4.52114 4.51222 4.50315 4.49393 4.48457 4.47507 4.46541 4.45561 4.44566 4.43556 4.42532 4.41493 4.4044 4.39371 4.38288 4.3719 4.36078 4.34951 4.33809 4.32653 4.31481 4.30295 4.29095 4.2788 4.2665 4.25405 4.25262 4.25122 4.24984 4.24848 4.24715 4.24585 4.24456 4.24331 4.24207 4.24087 4.23968 4.23852 4.23739 4.23628 4.23519 4.23413 4.23309 4.23208 4.23109 4.23013 4.22919 4.22827 4.22738 4.22651 4.22567 4.22486 4.22406 4.22329 4.22255 4.22183 4.22114 4.22047 4.21982 4.2192 4.2186 4.21803 4.21748 4.21695 4.21646 4.21598 4.21563 4.21526 4.21487 4.21447 4.21405 4.21361 4.21316 4.21269 4.2122 4.2117 4.21118 4.21065 4.21009 4.20953 4.20894 4.20834 4.20772 4.20709 4.20644 4.20577 4.20509 4.20439 4.20367 4.20294 4.20219 4.20143 4.20065 4.19985 4.19903 4.1982 4.19735 4.19649 4.19561 4.19471 4.1938 4.19287 4.19192 4.19096 4.18998 4.18898 4.18898 4.18899 4.189 4.18901 4.18903 4.18906 4.18909 4.18913 4.18917 4.18921 4.18926 4.18932 4.18938 4.18945 4.18952 4.1896 4.18968 4.18977 4.18986 4.18995 4.19006 4.19016 4.19028 4.19039 4.19052 4.19065 4.19078 4.19092 4.19106 4.19121 4.19136 4.19152 4.19168 4.19185 4.19203 4.19221 4.19239 4.19258 4.19278 4.19298 6.14166 6.08744 6.03403 5.98142 5.92962 5.87863 5.82844 5.77906 5.73049 5.68272 5.63576 5.5896 5.54426 5.49972 5.45598 5.41305 5.37093 5.32962 5.28911 5.24941 5.21051 5.17243 5.13515 5.09867 5.063 5.02814 4.99409 4.96084 4.9284 4.89676 4.86593 4.83591 4.80669 4.77828 4.75068 4.72389 4.6979 4.67271 4.64834 4.62477 4.60201 4.59545 4.58876 4.58194 4.57498 4.56788 4.56065 4.55328 4.54578 4.53814 4.53037 4.52246 4.51442 4.50624 4.49793 4.48948 4.48089 4.47217 4.46332 4.45433 4.4452 4.43594 4.42654 4.41701 4.40735 4.39754 4.38761 4.37753 4.36733 4.35698 4.3465 4.33589 4.32514 4.31426 4.30324 4.29208 4.28079 4.26936 4.2578 4.24611 4.23428 4.2328 4.23135 4.22992 4.22851 4.22713 4.22577 4.22443 4.22312 4.22183 4.22056 4.21932 4.2181 4.2169 4.21573 4.21458 4.21345 4.21235 4.21127 4.21022 4.20918 4.20817 4.20719 4.20623 4.20529 4.20437 4.20348 4.20261 4.20176 4.20094 4.20014 4.19937 4.19861 4.19789 4.19718 4.1965 4.19584 4.1952 4.19459 4.194 4.19344 4.19307 4.19269 4.1923 4.19189 4.19146 4.19102 4.19056 4.19009 4.1896 4.1891 4.18858 4.18805 4.1875 4.18693 4.18635 4.18575 4.18514 4.18451 4.18387 4.18321 4.18253 4.18184 4.18114 4.18042 4.17968 4.17893 4.17816 4.17737 4.17658 4.17576 4.17493 4.17409 4.17322 4.17235 4.17146 4.17055 4.16962 4.16869 4.16773 4.16676 4.16675 4.16673 4.16673 4.16673 4.16673 4.16674 4.16675 4.16677 4.1668 4.16683 4.16686 4.1669 4.16694 4.16699 4.16705 4.1671 4.16717 4.16724 4.16731 4.16739 4.16747 4.16756 4.16765 4.16775 4.16785 4.16796 4.16807 4.16819 4.16832 4.16844 4.16858 4.16871 4.16886 4.169 4.16916 4.16931 4.16948 4.16964 4.16982 4.16999 5.92886 5.8798 5.8315 5.78397 5.73721 5.69122 5.646 5.60155 5.55787 5.51496 5.47283 5.43146 5.39086 5.35103 5.31197 5.27368 5.23616 5.19941 5.16344 5.12823 5.09379 5.06012 5.02722 4.99509 4.96373 4.93314 4.90333 4.87428 4.846 4.81849 4.79175 4.76578 4.74058 4.71616 4.6925 4.66961 4.64749 4.62614 4.60556 4.58575 4.56672 4.56032 4.55379 4.54715 4.54038 4.53348 4.52646 4.51932 4.51206 4.50467 4.49715 4.48952 4.48176 4.47387 4.46586 4.45773 4.44948 4.4411 4.4326 4.42397 4.41522 4.40635 4.39735 4.38823 4.37899 4.36962 4.36013 4.35051 4.34077 4.33091 4.32092 4.31081 4.30058 4.29022 4.27974 4.26913 4.2584 4.24755 4.23658 4.22548 4.21425 4.21273 4.21124 4.20976 4.20831 4.20688 4.20547 4.20408 4.20272 4.20138 4.20006 4.19876 4.19748 4.19623 4.195 4.19379 4.19261 4.19144 4.1903 4.18918 4.18809 4.18701 4.18596 4.18493 4.18392 4.18294 4.18198 4.18104 4.18012 4.17922 4.17835 4.1775 4.17667 4.17586 4.17508 4.17431 4.17357 4.17286 4.17216 4.17149 4.17084 4.17046 4.17008 4.16967 4.16926 4.16882 4.16838 4.16792 4.16744 4.16695 4.16645 4.16593 4.16539 4.16484 4.16428 4.1637 4.16311 4.1625 4.16188 4.16124 4.16059 4.15993 4.15925 4.15855 4.15784 4.15712 4.15638 4.15563 4.15486 4.15407 4.15328 4.15247 4.15164 4.1508 4.14994 4.14907 4.14819 4.14729 4.14637 4.14544 4.1445 4.14447 4.14444 4.14442 4.14441 4.14439 4.14439 4.14439 4.14439 4.1444 4.14441 4.14443 4.14445 4.14448 4.14451 4.14454 4.14458 4.14463 4.14468 4.14474 4.1448 4.14486 4.14493 4.14501 4.14509 4.14517 4.14526 4.14535 4.14545 4.14555 4.14566 4.14577 4.14589 4.14601 4.14614 4.14627 4.14641 4.14655 4.1467 4.14685 4.147 5.72271 5.67863 5.63528 5.59266 5.55078 5.50963 5.46921 5.42953 5.39058 5.35236 5.31488 5.27813 5.24211 5.20683 5.17228 5.13847 5.10538 5.07304 5.04142 5.01054 4.98039 4.95097 4.92229 4.89434 4.86713 4.84065 4.8149 4.78989 4.76561 4.74206 4.71924 4.69716 4.67582 4.6552 4.63532 4.61617 4.59776 4.58008 4.56313 4.54692 4.53144 4.52519 4.51883 4.51235 4.50576 4.49906 4.49225 4.48533 4.47829 4.47115 4.46389 4.45651 4.44903 4.44143 4.43373 4.42591 4.41797 4.40993 4.40177 4.3935 4.38512 4.37663 4.36803 4.35931 4.35048 4.34154 4.33249 4.32332 4.31405 4.30466 4.29516 4.28554 4.27582 4.26598 4.25603 4.24597 4.2358 4.22551 4.21511 4.2046 4.19398 4.19242 4.19089 4.18937 4.18788 4.1864 4.18495 4.18352 4.18211 4.18072 4.17935 4.178 4.17668 4.17537 4.17409 4.17283 4.17159 4.17037 4.16917 4.16799 4.16684 4.1657 4.16459 4.1635 4.16243 4.16138 4.16035 4.15934 4.15836 4.15739 4.15645 4.15552 4.15462 4.15374 4.15288 4.15205 4.15123 4.15043 4.14966 4.14891 4.14817 4.14779 4.1474 4.14699 4.14656 4.14613 4.14568 4.14521 4.14473 4.14424 4.14374 4.14322 4.14269 4.14214 4.14158 4.141 4.14042 4.13982 4.1392 4.13857 4.13793 4.13727 4.1366 4.13592 4.13522 4.13451 4.13379 4.13305 4.1323 4.13153 4.13075 4.12996 4.12915 4.12833 4.12749 4.12665 4.12578 4.12491 4.12402 4.12312 4.1222 4.12215 4.12211 4.12208 4.12205 4.12202 4.122 4.12198 4.12197 4.12196 4.12196 4.12196 4.12197 4.12198 4.12199 4.12201 4.12204 4.12207 4.1221 4.12214 4.12218 4.12223 4.12228 4.12234 4.1224 4.12247 4.12254 4.12261 4.12269 4.12278 4.12286 4.12296 4.12306 4.12316 4.12327 4.12338 4.1235 4.12362 4.12374 4.12387 4.12401 5.5232 5.48394 5.44537 5.4075 5.37033 5.33385 5.29807 5.26299 5.2286 5.19491 5.16192 5.12962 5.09802 5.06712 5.03692 5.00741 4.9786 4.95048 4.92306 4.89634 4.87032 4.84499 4.82036 4.79643 4.77319 4.75065 4.72881 4.70766 4.68721 4.66746 4.64841 4.63005 4.61239 4.59542 4.57915 4.56358 4.54871 4.53453 4.52105 4.50827 4.49618 4.49007 4.48386 4.47755 4.47114 4.46463 4.45802 4.4513 4.44449 4.43758 4.43057 4.42345 4.41624 4.40892 4.40151 4.39399 4.38638 4.37866 4.37085 4.36293 4.35491 4.34679 4.33857 4.33025 4.32184 4.31332 4.3047 4.29597 4.28715 4.27823 4.26921 4.26009 4.25086 4.24154 4.23212 4.22259 4.21297 4.20324 4.19342 4.18349 4.17347 4.17187 4.1703 4.16875 4.16722 4.1657 4.16421 4.16274 4.16129 4.15986 4.15844 4.15705 4.15568 4.15433 4.153 4.15169 4.1504 4.14913 4.14788 4.14665 4.14544 4.14425 4.14307 4.14192 4.1408 4.13969 4.1386 4.13753 4.13648 4.13545 4.13444 4.13345 4.13248 4.13153 4.1306 4.12969 4.12881 4.12794 4.12709 4.12626 4.12545 4.12506 4.12466 4.12424 4.12382 4.12337 4.12292 4.12245 4.12197 4.12148 4.12097 4.12046 4.11993 4.11938 4.11882 4.11826 4.11767 4.11708 4.11647 4.11585 4.11522 4.11457 4.11391 4.11324 4.11255 4.11186 4.11115 4.11042 4.10969 4.10894 4.10818 4.1074 4.10662 4.10582 4.105 4.10418 4.10334 4.10249 4.10163 4.10075 4.09986 4.0998 4.09975 4.0997 4.09965 4.09961 4.09958 4.09955 4.09952 4.0995 4.09948 4.09947 4.09946 4.09945 4.09945 4.09946 4.09947 4.09948 4.0995 4.09952 4.09955 4.09958 4.09961 4.09965 4.09969 4.09974 4.0998 4.09985 4.09992 4.09998 4.10005 4.10013 4.10021 4.10029 4.10038 4.10047 4.10057 4.10067 4.10078 4.10089 4.101 5.33033 5.29572 5.26177 5.22848 5.19585 5.16388 5.13257 5.10192 5.07194 5.04261 5.01394 4.98593 4.95858 4.9319 4.90587 4.8805 4.8558 4.83175 4.80837 4.78564 4.76358 4.74217 4.72143 4.70134 4.68192 4.66315 4.64505 4.62761 4.61083 4.5947 4.57924 4.56444 4.5503 4.53681 4.52399 4.51183 4.50033 4.48949 4.47931 4.46979 4.46093 4.45496 4.44889 4.44274 4.4365 4.43017 4.42376 4.41725 4.41065 4.40397 4.3972 4.39033 4.38338 4.37634 4.36922 4.362 4.35469 4.3473 4.33981 4.33224 4.32458 4.31683 4.30899 4.30106 4.29305 4.28494 4.27675 4.26846 4.26009 4.25163 4.24308 4.23444 4.22572 4.2169 4.20799 4.199 4.18992 4.18075 4.17149 4.16214 4.1527 4.15108 4.14948 4.14789 4.14633 4.14478 4.14325 4.14175 4.14026 4.13879 4.13734 4.13591 4.13449 4.1331 4.13173 4.13037 4.12903 4.12772 4.12642 4.12514 4.12388 4.12264 4.12142 4.12021 4.11903 4.11786 4.11672 4.11559 4.11448 4.11339 4.11232 4.11127 4.11024 4.10923 4.10824 4.10726 4.1063 4.10537 4.10445 4.10355 4.10267 4.10227 4.10186 4.10144 4.10101 4.10056 4.10011 4.09964 4.09916 4.09866 4.09816 4.09764 4.09711 4.09657 4.09602 4.09545 4.09488 4.09429 4.09369 4.09308 4.09245 4.09182 4.09117 4.09051 4.08984 4.08916 4.08846 4.08775 4.08703 4.0863 4.08556 4.08481 4.08404 4.08326 4.08247 4.08167 4.08086 4.08003 4.07919 4.07834 4.07748 4.07741 4.07734 4.07728 4.07723 4.07717 4.07712 4.07708 4.07704 4.077 4.07697 4.07694 4.07692 4.0769 4.07688 4.07687 4.07687 4.07687 4.07687 4.07687 4.07688 4.0769 4.07692 4.07694 4.07697 4.077 4.07704 4.07708 4.07712 4.07717 4.07722 4.07728 4.07734 4.07741 4.07748 4.07755 4.07763 4.07772 4.0778 4.07789 4.07799 5.1441 5.11398 5.08448 5.05561 5.02736 4.99973 4.97273 4.94635 4.92059 4.89546 4.87095 4.84706 4.8238 4.80116 4.77915 4.75776 4.73699 4.71685 4.69733 4.67843 4.66016 4.64251 4.62549 4.60909 4.59331 4.57816 4.56363 4.54972 4.53644 4.52378 4.51174 4.50033 4.48955 4.47938 4.46984 4.46093 4.45263 4.44496 4.43792 4.4315 4.4257 4.41985 4.41393 4.40793 4.40186 4.3957 4.38947 4.38316 4.37678 4.37032 4.36378 4.35716 4.35046 4.34369 4.33684 4.32992 4.32292 4.31584 4.30868 4.30144 4.29413 4.28674 4.27928 4.27173 4.26411 4.25642 4.24864 4.24079 4.23286 4.22485 4.21677 4.20861 4.20037 4.19206 4.18366 4.17519 4.16665 4.15802 4.14932 4.14054 4.13169 4.13004 4.12841 4.1268 4.12521 4.12363 4.12208 4.12054 4.11902 4.11751 4.11603 4.11456 4.11311 4.11168 4.11027 4.10887 4.1075 4.10614 4.1048 4.10347 4.10217 4.10088 4.09961 4.09836 4.09713 4.09591 4.09471 4.09353 4.09237 4.09123 4.0901 4.08899 4.0879 4.08683 4.08578 4.08474 4.08373 4.08273 4.08174 4.08078 4.07983 4.07943 4.07901 4.07858 4.07815 4.0777 4.07724 4.07676 4.07628 4.07579 4.07528 4.07477 4.07424 4.07371 4.07316 4.0726 4.07203 4.07145 4.07086 4.07025 4.06964 4.06902 4.06838 4.06773 4.06708 4.06641 4.06573 4.06504 4.06434 4.06362 4.0629 4.06217 4.06142 4.06066 4.0599 4.05912 4.05833 4.05753 4.05672 4.0559 4.05506 4.05498 4.0549 4.05483 4.05476 4.05469 4.05463 4.05457 4.05452 4.05447 4.05443 4.05439 4.05435 4.05432 4.05429 4.05426 4.05424 4.05423 4.05421 4.0542 4.0542 4.0542 4.0542 4.05421 4.05422 4.05424 4.05426 4.05428 4.05431 4.05434 4.05438 4.05442 4.05447 4.05451 4.05457 4.05462 4.05468 4.05475 4.05482 4.05489 4.05497 4.96452 4.93872 4.9135 4.88888 4.86484 4.84139 4.81852 4.79625 4.77456 4.75345 4.73294 4.71301 4.69367 4.67492 4.65675 4.63917 4.62217 4.60577 4.58995 4.57472 4.56007 4.54602 4.53255 4.51966 4.50737 4.49566 4.48454 4.474 4.46405 4.45469 4.44592 4.43773 4.43014 4.42312 4.4167 4.41086 4.40561 4.40095 4.39687 4.39338 4.39048 4.38476 4.37897 4.37312 4.3672 4.36121 4.35516 4.34904 4.34286 4.33662 4.3303 4.32392 4.31748 4.31097 4.3044 4.29776 4.29105 4.28428 4.27744 4.27054 4.26357 4.25654 4.24944 4.24227 4.23504 4.22774 4.22038 4.21295 4.20546 4.1979 4.19028 4.18259 4.17483 4.16701 4.15912 4.15117 4.14315 4.13507 4.12692 4.11871 4.11043 4.10876 4.10711 4.10548 4.10386 4.10226 4.10068 4.09912 4.09757 4.09604 4.09452 4.09302 4.09154 4.09008 4.08863 4.0872 4.08579 4.08439 4.08301 4.08165 4.0803 4.07898 4.07766 4.07637 4.07509 4.07383 4.07258 4.07136 4.07015 4.06895 4.06777 4.06661 4.06547 4.06434 4.06324 4.06214 4.06107 4.06001 4.05897 4.05794 4.05693 4.05652 4.0561 4.05567 4.05522 4.05477 4.05431 4.05384 4.05335 4.05286 4.05236 4.05185 4.05132 4.05079 4.05025 4.04969 4.04913 4.04856 4.04798 4.04738 4.04678 4.04617 4.04554 4.04491 4.04427 4.04361 4.04295 4.04228 4.04159 4.0409 4.04019 4.03948 4.03876 4.03802 4.03728 4.03653 4.03576 4.03499 4.0342 4.03341 4.03261 4.03251 4.03242 4.03234 4.03226 4.03218 4.03211 4.03204 4.03197 4.03191 4.03185 4.0318 4.03175 4.0317 4.03166 4.03162 4.03159 4.03156 4.03153 4.03151 4.03149 4.03148 4.03147 4.03146 4.03146 4.03146 4.03146 4.03147 4.03148 4.0315 4.03152 4.03155 4.03157 4.03161 4.03164 4.03168 4.03173 4.03177 4.03183 4.03188 4.03194 4.79157 4.76993 4.74884 4.72829 4.7083 4.68886 4.66997 4.65163 4.63384 4.6166 4.59992 4.58378 4.56819 4.55316 4.53867 4.52473 4.51135 4.49851 4.48623 4.4745 4.46332 4.45268 4.4426 4.43307 4.42409 4.41566 4.40778 4.40045 4.39367 4.38745 4.38177 4.37664 4.37207 4.36804 4.36456 4.36164 4.35927 4.35744 4.35617 4.35545 4.35527 4.34967 4.34401 4.33829 4.33252 4.3267 4.32083 4.31489 4.30891 4.30287 4.29678 4.29063 4.28443 4.27818 4.27187 4.26551 4.25909 4.25262 4.2461 4.23952 4.23289 4.2262 4.21946 4.21267 4.20582 4.19892 4.19196 4.18495 4.17789 4.17077 4.1636 4.15638 4.1491 4.14176 4.13438 4.12694 4.11944 4.11189 4.10429 4.09663 4.08892 4.08724 4.08557 4.08392 4.08229 4.08067 4.07907 4.07748 4.07591 4.07435 4.07281 4.07129 4.06978 4.06829 4.06681 4.06535 4.06391 4.06248 4.06107 4.05967 4.05829 4.05692 4.05557 4.05424 4.05292 4.05162 4.05033 4.04906 4.0478 4.04656 4.04534 4.04413 4.04294 4.04176 4.0406 4.03946 4.03833 4.03722 4.03612 4.03504 4.03397 4.03355 4.03313 4.03269 4.03224 4.03179 4.03133 4.03085 4.03037 4.02988 4.02938 4.02887 4.02835 4.02782 4.02728 4.02674 4.02618 4.02562 4.02504 4.02446 4.02387 4.02327 4.02266 4.02204 4.02141 4.02077 4.02012 4.01947 4.0188 4.01813 4.01745 4.01675 4.01605 4.01534 4.01462 4.01389 4.01315 4.01241 4.01165 4.01088 4.01011 4.01001 4.00991 4.00981 4.00972 4.00963 4.00955 4.00947 4.00939 4.00932 4.00925 4.00918 4.00912 4.00906 4.00901 4.00896 4.00891 4.00887 4.00883 4.00879 4.00876 4.00873 4.00871 4.00869 4.00867 4.00866 4.00865 4.00864 4.00864 4.00864 4.00865 4.00865 4.00867 4.00868 4.0087 4.00873 4.00876 4.00879 4.00882 4.00886 4.0089 4.62527 4.60762 4.59048 4.57385 4.55774 4.54215 4.52707 4.5125 4.49844 4.4849 4.47188 4.45937 4.44737 4.43588 4.42491 4.41446 4.40451 4.39509 4.38617 4.37777 4.36988 4.36251 4.35565 4.34931 4.34348 4.33816 4.33336 4.32907 4.32529 4.32203 4.31929 4.31705 4.31533 4.31413 4.31344 4.31326 4.3136 4.31445 4.31581 4.31769 4.32008 4.31459 4.30905 4.30347 4.29784 4.29217 4.28646 4.28071 4.27492 4.26908 4.26321 4.25728 4.25132 4.24532 4.23927 4.23318 4.22705 4.22087 4.21465 4.20839 4.20209 4.19575 4.18936 4.18293 4.17646 4.16995 4.16339 4.15679 4.15015 4.14347 4.13675 4.12998 4.12317 4.11632 4.10942 4.10248 4.09551 4.08848 4.08142 4.07431 4.06716 4.06547 4.0638 4.06213 4.06048 4.05885 4.05723 4.05563 4.05404 4.05246 4.0509 4.04936 4.04783 4.04631 4.04481 4.04333 4.04185 4.0404 4.03896 4.03753 4.03612 4.03472 4.03333 4.03197 4.03061 4.02927 4.02795 4.02664 4.02534 4.02406 4.0228 4.02155 4.02031 4.01909 4.01788 4.01669 4.01552 4.01435 4.0132 4.01207 4.01095 4.01053 4.0101 4.00966 4.00921 4.00875 4.00828 4.00781 4.00733 4.00684 4.00634 4.00584 4.00532 4.0048 4.00427 4.00373 4.00318 4.00262 4.00206 4.00149 4.00091 4.00032 3.99972 3.99912 3.9985 3.99788 3.99725 3.99661 3.99597 3.99531 3.99465 3.99398 3.9933 3.99261 3.99192 3.99122 3.9905 3.98978 3.98905 3.98832 3.98757 3.98746 3.98735 3.98725 3.98715 3.98705 3.98695 3.98686 3.98678 3.98669 3.98661 3.98653 3.98646 3.98639 3.98633 3.98626 3.98621 3.98615 3.9861 3.98605 3.98601 3.98596 3.98593 3.98589 3.98586 3.98584 3.98581 3.98579 3.98578 3.98576 3.98576 3.98575 3.98575 3.98575 3.98575 3.98576 3.98578 3.98579 3.98581 3.98583 3.98586 4.4656 4.45178 4.43843 4.42556 4.41316 4.40125 4.38981 4.37885 4.36836 4.35835 4.34882 4.33977 4.3312 4.3231 4.31548 4.30833 4.30167 4.29548 4.28977 4.28454 4.27978 4.2755 4.2717 4.26838 4.26553 4.26316 4.26127 4.25985 4.25892 4.25846 4.25848 4.25897 4.25994 4.26139 4.26332 4.26572 4.26861 4.27197 4.2758 4.28012 4.28491 4.27951 4.27409 4.26863 4.26315 4.25763 4.25208 4.2465 4.24089 4.23525 4.22958 4.22388 4.21814 4.21238 4.20659 4.20076 4.19491 4.18902 4.1831 4.17716 4.17118 4.16517 4.15913 4.15306 4.14696 4.14083 4.13466 4.12847 4.12225 4.11599 4.10971 4.10339 4.09704 4.09067 4.08426 4.07782 4.07135 4.06485 4.05832 4.05175 4.04516 4.04346 4.04178 4.04011 4.03845 4.03681 4.03518 4.03356 4.03196 4.03037 4.0288 4.02723 4.02569 4.02415 4.02263 4.02112 4.01963 4.01815 4.01668 4.01523 4.01379 4.01237 4.01095 4.00956 4.00817 4.0068 4.00544 4.0041 4.00277 4.00145 4.00015 3.99886 3.99759 3.99633 3.99508 3.99384 3.99262 3.99141 3.99022 3.98904 3.98787 3.98745 3.98701 3.98656 3.98611 3.98565 3.98519 3.98471 3.98423 3.98375 3.98325 3.98275 3.98224 3.98172 3.9812 3.98067 3.98013 3.97958 3.97903 3.97847 3.9779 3.97732 3.97674 3.97615 3.97555 3.97495 3.97433 3.97372 3.97309 3.97245 3.97181 3.97116 3.97051 3.96985 3.96918 3.9685 3.96781 3.96712 3.96642 3.96571 3.965 3.96488 3.96476 3.96465 3.96454 3.96443 3.96433 3.96422 3.96413 3.96403 3.96394 3.96386 3.96377 3.96369 3.96362 3.96354 3.96347 3.96341 3.96334 3.96328 3.96323 3.96317 3.96312 3.96308 3.96304 3.963 3.96296 3.96293 3.9629 3.96287 3.96285 3.96283 3.96281 3.9628 3.96279 3.96279 3.96278 3.96279 3.96279 3.9628 3.96281 4.31258 4.30242 4.29269 4.28341 4.27456 4.26616 4.2582 4.25068 4.24359 4.23695 4.23075 4.225 4.21968 4.2148 4.21037 4.20637 4.20282 4.1997 4.19703 4.1948 4.19301 4.19165 4.19075 4.19028 4.19025 4.19066 4.19151 4.19281 4.19454 4.19672 4.19934 4.20239 4.20589 4.20983 4.21421 4.21903 4.22429 4.23 4.23614 4.24272 4.24975 4.24445 4.23913 4.23379 4.22844 4.22306 4.21767 4.21226 4.20682 4.20137 4.1959 4.19041 4.1849 4.17938 4.17383 4.16826 4.16268 4.15708 4.15145 4.14581 4.14015 4.13447 4.12877 4.12305 4.11731 4.11156 4.10578 4.09998 4.09417 4.08834 4.08249 4.07661 4.07072 4.06481 4.05889 4.05294 4.04697 4.04098 4.03498 4.02896 4.02291 4.02121 4.01953 4.01785 4.01619 4.01454 4.01291 4.01128 4.00967 4.00807 4.00648 4.00491 4.00335 4.0018 4.00027 3.99874 3.99723 3.99573 3.99425 3.99277 3.99131 3.98986 3.98843 3.98701 3.9856 3.9842 3.98281 3.98144 3.98008 3.97873 3.9774 3.97607 3.97476 3.97347 3.97218 3.97091 3.96965 3.9684 3.96717 3.96595 3.96474 3.9643 3.96386 3.96341 3.96296 3.9625 3.96203 3.96156 3.96108 3.9606 3.96011 3.95961 3.9591 3.95859 3.95808 3.95755 3.95702 3.95649 3.95594 3.95539 3.95484 3.95428 3.95371 3.95313 3.95255 3.95196 3.95137 3.95077 3.95016 3.94955 3.94893 3.9483 3.94767 3.94703 3.94639 3.94574 3.94508 3.94442 3.94375 3.94307 3.94238 3.94226 3.94213 3.94201 3.94189 3.94177 3.94166 3.94155 3.94145 3.94134 3.94124 3.94115 3.94105 3.94097 3.94088 3.94079 3.94071 3.94064 3.94056 3.94049 3.94043 3.94036 3.9403 3.94024 3.94019 3.94014 3.94009 3.94004 3.94 3.93996 3.93993 3.93989 3.93987 3.93984 3.93982 3.9398 3.93978 3.93977 3.93976 3.93975 3.93975 4.1662 4.15953 4.15326 4.1474 4.14194 4.13688 4.13223 4.12799 4.12414 4.1207 4.11767 4.11504 4.11281 4.11099 4.10957 4.10856 4.10795 4.10775 4.10795 4.10855 4.10956 4.11097 4.11279 4.11501 4.11763 4.12066 4.12409 4.12793 4.13217 4.13682 4.14187 4.14732 4.15318 4.15944 4.16611 4.17318 4.18066 4.18854 4.19682 4.20551 4.2146 4.20939 4.20417 4.19895 4.19372 4.18848 4.18323 4.17798 4.17272 4.16745 4.16217 4.15689 4.1516 4.1463 4.14099 4.13568 4.13036 4.12503 4.1197 4.11435 4.109 4.10364 4.09828 4.0929 4.08752 4.08214 4.07674 4.07134 4.06593 4.06051 4.05508 4.04965 4.04421 4.03876 4.0333 4.02784 4.02237 4.01689 4.01141 4.00592 4.00041 3.99872 3.99703 3.99536 3.9937 3.99205 3.99041 3.98879 3.98717 3.98557 3.98397 3.98239 3.98082 3.97927 3.97772 3.97618 3.97466 3.97315 3.97165 3.97016 3.96868 3.96722 3.96576 3.96432 3.96289 3.96147 3.96006 3.95866 3.95727 3.9559 3.95454 3.95318 3.95184 3.95052 3.9492 3.94789 3.9466 3.94532 3.94405 3.94279 3.94154 3.9411 3.94066 3.94021 3.93975 3.93929 3.93883 3.93835 3.93788 3.93739 3.93691 3.93641 3.93592 3.93541 3.9349 3.93439 3.93387 3.93334 3.93281 3.93227 3.93173 3.93118 3.93063 3.93007 3.92951 3.92894 3.92836 3.9