<?xml version="1.0"?> 
<VTKFile type="StructuredGrid" version="0.1"> 
<StructuredGrid WholeExtent="0 100 0 100 0 0"> 
<Piece Extent="0 100 0 100 0 0"> 
<PointData Vectors="Diplacement">
<DataArray type="Float32" Name="Diplacement" format="ascii" NumberOfComponents="3"> 
-0.000214432 -0.000134939 0 -0.000211319 -0.00013687 0 -0.000208251 -0.000138782 0 -0.000205229 -0.000140674 0 -0.000202252 -0.000142548 0 -0.00019932 -0.000144402 0 -0.000196434 -0.000146236 0 -0.000193593 -0.000148052 0 -0.000190798 -0.000149848 0 -0.000188048 -0.000151626 0 -0.000185343 -0.000153383 0 -0.000182684 -0.000155122 0 -0.00018007 -0.000156842 0 -0.000177502 -0.000158542 0 -0.000174979 -0.000160223 0 -0.000172502 -0.000161885 0 -0.00017007 -0.000163527 0 -0.000167683 -0.000165151 0 -0.000165342 -0.000166755 0 -0.000163046 -0.00016834 0 -0.000160796 -0.000169906 0 -0.000158574 -0.000171453 0 -0.000156364 -0.000172982 0 -0.000154166 -0.000174493 0 -0.00015198 -0.000175986 0 -0.000149805 -0.000177462 0 -0.000147643 -0.000178919 0 -0.000145492 -0.000180358 0 -0.000143353 -0.00018178 0 -0.000141226 -0.000183183 0 -0.00013911 -0.000184569 0 -0.000137007 -0.000185936 0 -0.000134915 -0.000187286 0 -0.000132835 -0.000188617 0 -0.000130767 -0.000189931 0 -0.000128711 -0.000191226 0 -0.000126667 -0.000192504 0 -0.000124634 -0.000193764 0 -0.000122613 -0.000195005 0 -0.000120604 -0.000196229 0 -0.000118607 -0.000197435 0 -0.000116616 -0.000198622 0 -0.000114625 -0.000199791 0 -0.000112635 -0.000200941 0 -0.000110646 -0.000202073 0 -0.000108656 -0.000203186 0 -0.000106667 -0.00020428 0 -0.000104679 -0.000205355 0 -0.000102691 -0.000206412 0 -0.000100703 -0.000207451 0 -9.87164e-05 -0.00020847 0 -9.67297e-05 -0.000209472 0 -9.47435e-05 -0.000210454 0 -9.27577e-05 -0.000211418 0 -9.07723e-05 -0.000212363 0 -8.87874e-05 -0.000213289 0 -8.68029e-05 -0.000214197 0 -8.48189e-05 -0.000215086 0 -8.28353e-05 -0.000215957 0 -8.08521e-05 -0.000216809 0 -7.88693e-05 -0.000217642 0 -7.68872e-05 -0.000218456 0 -7.49058e-05 -0.000219249 0 -7.29253e-05 -0.000220021 0 -7.09454e-05 -0.000220773 0 -6.89664e-05 -0.000221504 0 -6.69881e-05 -0.000222215 0 -6.50106e-05 -0.000222905 0 -6.30339e-05 -0.000223575 0 -6.10579e-05 -0.000224223 0 -5.90828e-05 -0.000224852 0 -5.71084e-05 -0.000225459 0 -5.51347e-05 -0.000226046 0 -5.31619e-05 -0.000226613 0 -5.11898e-05 -0.000227159 0 -4.92185e-05 -0.000227684 0 -4.72479e-05 -0.000228189 0 -4.52782e-05 -0.000228673 0 -4.33092e-05 -0.000229136 0 -4.13409e-05 -0.000229579 0 -3.93735e-05 -0.000230001 0 -3.74064e-05 -0.000230403 0 -3.54391e-05 -0.000230784 0 -3.34716e-05 -0.000231145 0 -3.1504e-05 -0.000231485 0 -2.95362e-05 -0.000231805 0 -2.75682e-05 -0.000232104 0 -2.56001e-05 -0.000232382 0 -2.36318e-05 -0.000232641 0 -2.16634e-05 -0.000232878 0 -1.96948e-05 -0.000233096 0 -1.77261e-05 -0.000233292 0 -1.57571e-05 -0.000233469 0 -1.37881e-05 -0.000233624 0 -1.18188e-05 -0.00023376 0 -9.84943e-06 -0.000233874 0 -7.87986e-06 -0.000233969 0 -5.91014e-06 -0.000234042 0 -3.94025e-06 -0.000234096 0 -1.97021e-06 -0.000234129 0 0 -0.000234141 0 -0.000210348 -0.000135478 0 -0.000207424 -0.000137465 0 -0.000204538 -0.000139429 0 -0.000201689 -0.00014137 0 -0.000198878 -0.000143289 0 -0.000196105 -0.000145185 0 -0.000193369 -0.000147058 0 -0.000190671 -0.000148908 0 -0.000188011 -0.000150735 0 -0.000185388 -0.00015254 0 -0.000182803 -0.000154322 0 -0.000180255 -0.000156081 0 -0.000177745 -0.000157817 0 -0.000175273 -0.00015953 0 -0.000172838 -0.000161221 0 -0.000170441 -0.000162889 0 -0.000168082 -0.000164534 0 -0.00016576 -0.000166157 0 -0.000163476 -0.000167756 0 -0.00016123 -0.000169333 0 -0.000159021 -0.000170887 0 -0.000156836 -0.000172421 0 -0.000154662 -0.000173938 0 -0.0001525 -0.000175438 0 -0.000150348 -0.00017692 0 -0.000148206 -0.000178385 0 -0.000146076 -0.000179833 0 -0.000143957 -0.000181264 0 -0.000141848 -0.000182677 0 -0.00013975 -0.000184073 0 -0.000137664 -0.000185452 0 -0.000135588 -0.000186813 0 -0.000133522 -0.000188157 0 -0.000131468 -0.000189484 0 -0.000129425 -0.000190794 0 -0.000127392 -0.000192087 0 -0.00012537 -0.000193362 0 -0.00012336 -0.00019462 0 -0.00012136 -0.000195861 0 -0.00011937 -0.000197084 0 -0.000117392 -0.00019829 0 -0.00011542 -0.000199478 0 -0.000113448 -0.000200648 0 -0.000111476 -0.000201799 0 -0.000109505 -0.000202931 0 -0.000107535 -0.000204044 0 -0.000105565 -0.000205138 0 -0.000103596 -0.000206214 0 -0.000101627 -0.000207271 0 -9.96592e-05 -0.000208309 0 -9.76917e-05 -0.000209329 0 -9.57247e-05 -0.00021033 0 -9.37583e-05 -0.000211312 0 -9.17924e-05 -0.000212275 0 -8.98271e-05 -0.000213219 0 -8.78624e-05 -0.000214145 0 -8.58982e-05 -0.000215052 0 -8.39346e-05 -0.000215941 0 -8.19715e-05 -0.00021681 0 -8.0009e-05 -0.000217661 0 -7.80471e-05 -0.000218493 0 -7.60858e-05 -0.000219305 0 -7.41252e-05 -0.000220097 0 -7.21654e-05 -0.000220869 0 -7.02063e-05 -0.00022162 0 -6.8248e-05 -0.00022235 0 -6.62904e-05 -0.00022306 0 -6.43336e-05 -0.000223749 0 -6.23775e-05 -0.000224418 0 -6.04221e-05 -0.000225066 0 -5.84675e-05 -0.000225693 0 -5.65136e-05 -0.000226301 0 -5.45605e-05 -0.000226887 0 -5.26081e-05 -0.000227453 0 -5.06564e-05 -0.000227999 0 -4.87055e-05 -0.000228524 0 -4.67554e-05 -0.000229028 0 -4.48059e-05 -0.000229512 0 -4.28573e-05 -0.000229976 0 -4.09093e-05 -0.000230419 0 -3.89621e-05 -0.000230841 0 -3.70152e-05 -0.000231243 0 -3.50682e-05 -0.000231624 0 -3.31211e-05 -0.000231985 0 -3.11738e-05 -0.000232325 0 -2.92264e-05 -0.000232645 0 -2.72789e-05 -0.000232944 0 -2.53312e-05 -0.000233223 0 -2.33834e-05 -0.000233481 0 -2.14355e-05 -0.000233719 0 -1.94875e-05 -0.000233936 0 -1.75393e-05 -0.000234133 0 -1.5591e-05 -0.000234309 0 -1.36426e-05 -0.000234465 0 -1.1694e-05 -0.0002346 0 -9.74533e-06 -0.000234715 0 -7.79652e-06 -0.000234809 0 -5.84758e-06 -0.000234883 0 -3.89852e-06 -0.000234936 0 -1.94932e-06 -0.000234968 0 0 -0.00023498 0 -0.000206352 -0.00013601 0 -0.000203608 -0.000138049 0 -0.000200894 -0.000140062 0 -0.000198211 -0.00014205 0 -0.000195558 -0.000144011 0 -0.000192935 -0.000145946 0 -0.000190343 -0.000147855 0 -0.000187781 -0.000149738 0 -0.000185249 -0.000151595 0 -0.000182748 -0.000153425 0 -0.000180277 -0.00015523 0 -0.000177836 -0.000157009 0 -0.000175426 -0.000158761 0 -0.000173046 -0.000160488 0 -0.000170696 -0.000162188 0 -0.000168377 -0.000163862 0 -0.000166088 -0.000165511 0 -0.000163829 -0.000167133 0 -0.000161601 -0.000168729 0 -0.000159403 -0.000170299 0 -0.000157235 -0.000171843 0 -0.000155088 -0.000173365 0 -0.000152951 -0.000174871 0 -0.000150823 -0.00017636 0 -0.000148705 -0.000177833 0 -0.000146597 -0.000179289 0 -0.0001445 -0.000180729 0 -0.000142412 -0.000182151 0 -0.000140334 -0.000183558 0 -0.000138265 -0.000184947 0 -0.000136207 -0.00018632 0 -0.000134159 -0.000187676 0 -0.000132121 -0.000189016 0 -0.000130092 -0.000190339 0 -0.000128074 -0.000191646 0 -0.000126065 -0.000192935 0 -0.000124066 -0.000194208 0 -0.000122078 -0.000195465 0 -0.000120099 -0.000196705 0 -0.00011813 -0.000197928 0 -0.000116171 -0.000199135 0 -0.000114217 -0.000200324 0 -0.000112264 -0.000201494 0 -0.000110311 -0.000202645 0 -0.00010836 -0.000203777 0 -0.000106409 -0.000204891 0 -0.000104458 -0.000205986 0 -0.000102508 -0.000207062 0 -0.000100559 -0.000208119 0 -9.8611e-05 -0.000209157 0 -9.66633e-05 -0.000210176 0 -9.47162e-05 -0.000211177 0 -9.27698e-05 -0.000212158 0 -9.08241e-05 -0.000213121 0 -8.8879e-05 -0.000214065 0 -8.69346e-05 -0.00021499 0 -8.49909e-05 -0.000215897 0 -8.30478e-05 -0.000216784 0 -8.11054e-05 -0.000217653 0 -7.91637e-05 -0.000218503 0 -7.72226e-05 -0.000219334 0 -7.52823e-05 -0.000220145 0 -7.33426e-05 -0.000220936 0 -7.14037e-05 -0.000221706 0 -6.94654e-05 -0.000222456 0 -6.75279e-05 -0.000223186 0 -6.55911e-05 -0.000223895 0 -6.36549e-05 -0.000224583 0 -6.17195e-05 -0.000225251 0 -5.97849e-05 -0.000225899 0 -5.78509e-05 -0.000226526 0 -5.59176e-05 -0.000227133 0 -5.3985e-05 -0.000227719 0 -5.20532e-05 -0.000228285 0 -5.0122e-05 -0.00022883 0 -4.81916e-05 -0.000229355 0 -4.62619e-05 -0.000229859 0 -4.43328e-05 -0.000230343 0 -4.24045e-05 -0.000230806 0 -4.04769e-05 -0.000231249 0 -3.85501e-05 -0.000231672 0 -3.66235e-05 -0.000232074 0 -3.46968e-05 -0.000232455 0 -3.277e-05 -0.000232816 0 -3.08431e-05 -0.000233157 0 -2.89162e-05 -0.000233477 0 -2.69891e-05 -0.000233776 0 -2.50619e-05 -0.000234055 0 -2.31347e-05 -0.000234313 0 -2.12073e-05 -0.000234551 0 -1.92799e-05 -0.000234768 0 -1.73523e-05 -0.000234965 0 -1.54247e-05 -0.000235141 0 -1.34969e-05 -0.000235297 0 -1.15691e-05 -0.000235432 0 -9.64115e-06 -0.000235546 0 -7.71311e-06 -0.00023564 0 -5.78498e-06 -0.000235714 0 -3.85675e-06 -0.000235767 0 -1.92842e-06 -0.000235799 0 0 -0.000235811 0 -0.000202445 -0.000136534 0 -0.000199871 -0.000138622 0 -0.000197321 -0.000140682 0 -0.000194794 -0.000142712 0 -0.000192291 -0.000144713 0 -0.000189811 -0.000146685 0 -0.000187355 -0.000148628 0 -0.000184922 -0.000150542 0 -0.000182513 -0.000152427 0 -0.000180127 -0.000154282 0 -0.000177765 -0.000156109 0 -0.000175427 -0.000157906 0 -0.000173112 -0.000159674 0 -0.00017082 -0.000161414 0 -0.000168553 -0.000163123 0 -0.000166308 -0.000164804 0 -0.000164088 -0.000166456 0 -0.00016189 -0.000168079 0 -0.000159717 -0.000169672 0 -0.000157567 -0.000171236 0 -0.00015544 -0.000172771 0 -0.00015333 -0.000174284 0 -0.000151228 -0.000175781 0 -0.000149136 -0.000177261 0 -0.000147053 -0.000178725 0 -0.000144978 -0.000180174 0 -0.000142913 -0.000181606 0 -0.000140857 -0.000183022 0 -0.000138809 -0.000184422 0 -0.000136771 -0.000185806 0 -0.000134742 -0.000187174 0 -0.000132721 -0.000188526 0 -0.00013071 -0.000189861 0 -0.000128707 -0.000191181 0 -0.000126714 -0.000192485 0 -0.00012473 -0.000193772 0 -0.000122754 -0.000195043 0 -0.000120788 -0.000196299 0 -0.00011883 -0.000197538 0 -0.000116882 -0.000198761 0 -0.000114942 -0.000199968 0 -0.000113008 -0.000201158 0 -0.000111074 -0.000202329 0 -0.000109141 -0.00020348 0 -0.000107209 -0.000204613 0 -0.000105277 -0.000205727 0 -0.000103346 -0.000206822 0 -0.000101417 -0.000207898 0 -9.94873e-05 -0.000208955 0 -9.75588e-05 -0.000209993 0 -9.56311e-05 -0.000211013 0 -9.37042e-05 -0.000212013 0 -9.1778e-05 -0.000212994 0 -8.98526e-05 -0.000213957 0 -8.79279e-05 -0.0002149 0 -8.6004e-05 -0.000215825 0 -8.40809e-05 -0.000216731 0 -8.21586e-05 -0.000217618 0 -8.0237e-05 -0.000218485 0 -7.83161e-05 -0.000219334 0 -7.6396e-05 -0.000220164 0 -7.44767e-05 -0.000220975 0 -7.2558e-05 -0.000221764 0 -7.064e-05 -0.000222534 0 -6.87227e-05 -0.000223283 0 -6.6806e-05 -0.000224012 0 -6.489e-05 -0.00022472 0 -6.29747e-05 -0.000225408 0 -6.10601e-05 -0.000226075 0 -5.91462e-05 -0.000226722 0 -5.72329e-05 -0.000227349 0 -5.53203e-05 -0.000227955 0 -5.34084e-05 -0.000228541 0 -5.14971e-05 -0.000229107 0 -4.95865e-05 -0.000229652 0 -4.76766e-05 -0.000230176 0 -4.57674e-05 -0.000230681 0 -4.38589e-05 -0.000231165 0 -4.1951e-05 -0.000231628 0 -4.00438e-05 -0.000232071 0 -3.81373e-05 -0.000232494 0 -3.62311e-05 -0.000232896 0 -3.43248e-05 -0.000233278 0 -3.24184e-05 -0.000233639 0 -3.0512e-05 -0.000233979 0 -2.86055e-05 -0.000234299 0 -2.6699e-05 -0.000234599 0 -2.47923e-05 -0.000234877 0 -2.28856e-05 -0.000235136 0 -2.09789e-05 -0.000235374 0 -1.90721e-05 -0.000235591 0 -1.71652e-05 -0.000235787 0 -1.52582e-05 -0.000235964 0 -1.33512e-05 -0.000236119 0 -1.14441e-05 -0.000236254 0 -9.53688e-06 -0.000236369 0 -7.62964e-06 -0.000236462 0 -5.72233e-06 -0.000236536 0 -3.81496e-06 -0.000236589 0 -1.90751e-06 -0.000236621 0 0 -0.000236632 0 -0.000198627 -0.00013705 0 -0.000196213 -0.000139185 0 -0.000193817 -0.000141287 0 -0.000191438 -0.000143358 0 -0.000189076 -0.000145396 0 -0.000186732 -0.000147403 0 -0.000184405 -0.000149378 0 -0.000182095 -0.000151321 0 -0.000179802 -0.000153232 0 -0.000177527 -0.000155111 0 -0.000175268 -0.000156958 0 -0.000173027 -0.000158773 0 -0.000170804 -0.000160557 0 -0.000168597 -0.000162308 0 -0.000166408 -0.000164028 0 -0.000164236 -0.000165715 0 -0.000162081 -0.000167371 0 -0.000159944 -0.000168994 0 -0.000157823 -0.000170586 0 -0.00015572 -0.000172146 0 -0.000153634 -0.000173674 0 -0.000151561 -0.000175178 0 -0.000149496 -0.000176666 0 -0.000147439 -0.000178139 0 -0.00014539 -0.000179597 0 -0.000143349 -0.000181038 0 -0.000141316 -0.000182464 0 -0.000139292 -0.000183875 0 -0.000137275 -0.00018527 0 -0.000135267 -0.000186649 0 -0.000133266 -0.000188013 0 -0.000131274 -0.000189361 0 -0.00012929 -0.000190693 0 -0.000127314 -0.00019201 0 -0.000125346 -0.000193311 0 -0.000123386 -0.000194597 0 -0.000121434 -0.000195867 0 -0.00011949 -0.000197121 0 -0.000117555 -0.00019836 0 -0.000115627 -0.000199583 0 -0.000113707 -0.000200791 0 -0.000111792 -0.000201981 0 -0.000109878 -0.000203152 0 -0.000107965 -0.000204305 0 -0.000106052 -0.000205438 0 -0.000104141 -0.000206552 0 -0.00010223 -0.000207647 0 -0.00010032 -0.000208724 0 -9.84109e-05 -0.000209781 0 -9.65026e-05 -0.000210819 0 -9.45952e-05 -0.000211838 0 -9.26886e-05 -0.000212838 0 -9.07829e-05 -0.00021382 0 -8.8878e-05 -0.000214782 0 -8.69739e-05 -0.000215725 0 -8.50707e-05 -0.000216649 0 -8.31683e-05 -0.000217554 0 -8.12668e-05 -0.00021844 0 -7.93661e-05 -0.000219307 0 -7.74663e-05 -0.000220155 0 -7.55673e-05 -0.000220985 0 -7.3669e-05 -0.000221794 0 -7.17714e-05 -0.000222583 0 -6.98744e-05 -0.000223352 0 -6.79781e-05 -0.0002241 0 -6.60824e-05 -0.000224828 0 -6.41874e-05 -0.000225536 0 -6.22929e-05 -0.000226223 0 -6.03992e-05 -0.00022689 0 -5.8506e-05 -0.000227537 0 -5.66135e-05 -0.000228163 0 -5.47217e-05 -0.000228769 0 -5.28305e-05 -0.000229354 0 -5.09399e-05 -0.00022992 0 -4.905e-05 -0.000230465 0 -4.71607e-05 -0.000230989 0 -4.5272e-05 -0.000231493 0 -4.3384e-05 -0.000231977 0 -4.14966e-05 -0.000232441 0 -3.96099e-05 -0.000232884 0 -3.77238e-05 -0.000233307 0 -3.5838e-05 -0.000233709 0 -3.39522e-05 -0.000234091 0 -3.20663e-05 -0.000234452 0 -3.01804e-05 -0.000234792 0 -2.82944e-05 -0.000235113 0 -2.64084e-05 -0.000235412 0 -2.45224e-05 -0.000235691 0 -2.26363e-05 -0.000235949 0 -2.07502e-05 -0.000236187 0 -1.8864e-05 -0.000236404 0 -1.69778e-05 -0.000236601 0 -1.50915e-05 -0.000236777 0 -1.32052e-05 -0.000236932 0 -1.13189e-05 -0.000237067 0 -9.43253e-06 -0.000237182 0 -7.5461e-06 -0.000237276 0 -5.65964e-06 -0.000237349 0 -3.77314e-06 -0.000237401 0 -1.88659e-06 -0.000237434 0 0 -0.000237445 0 -0.000194897 -0.000137559 0 -0.000192634 -0.000139736 0 -0.000190383 -0.000141879 0 -0.000188144 -0.000143987 0 -0.000185916 -0.00014606 0 -0.000183699 -0.0001481 0 -0.000181494 -0.000150104 0 -0.0001793 -0.000152074 0 -0.000177117 -0.00015401 0 -0.000174946 -0.000155911 0 -0.000172786 -0.000157778 0 -0.000170638 -0.00015961 0 -0.000168501 -0.000161408 0 -0.000166376 -0.000163171 0 -0.000164262 -0.0001649 0 -0.00016216 -0.000166595 0 -0.000160068 -0.000168255 0 -0.000157989 -0.00016988 0 -0.000155921 -0.000171471 0 -0.000153864 -0.000173028 0 -0.000151818 -0.00017455 0 -0.000149782 -0.000176047 0 -0.000147753 -0.000177529 0 -0.000145732 -0.000178996 0 -0.000143717 -0.000180447 0 -0.00014171 -0.000181884 0 -0.00013971 -0.000183305 0 -0.000137717 -0.000184711 0 -0.000135731 -0.000186101 0 -0.000133753 -0.000187477 0 -0.000131782 -0.000188837 0 -0.000129818 -0.000190182 0 -0.000127861 -0.000191512 0 -0.000125911 -0.000192826 0 -0.000123969 -0.000194126 0 -0.000122034 -0.00019541 0 -0.000120106 -0.000196679 0 -0.000118185 -0.000197933 0 -0.000116271 -0.000199171 0 -0.000114365 -0.000200394 0 -0.000112466 -0.000201602 0 -0.000110571 -0.000202793 0 -0.000108676 -0.000203965 0 -0.000106783 -0.000205118 0 -0.000104891 -0.000206252 0 -0.000102999 -0.000207366 0 -0.000101109 -0.000208462 0 -9.9219e-05 -0.000209538 0 -9.73303e-05 -0.000210595 0 -9.54424e-05 -0.000211634 0 -9.35555e-05 -0.000212653 0 -9.16695e-05 -0.000213653 0 -8.97844e-05 -0.000214634 0 -8.79002e-05 -0.000215596 0 -8.60169e-05 -0.000216539 0 -8.41346e-05 -0.000217462 0 -8.22531e-05 -0.000218367 0 -8.03725e-05 -0.000219253 0 -7.84929e-05 -0.000220119 0 -7.66142e-05 -0.000220966 0 -7.47363e-05 -0.000221795 0 -7.28593e-05 -0.000222603 0 -7.09828e-05 -0.000223392 0 -6.9107e-05 -0.00022416 0 -6.72317e-05 -0.000224907 0 -6.53571e-05 -0.000225635 0 -6.3483e-05 -0.000226342 0 -6.16096e-05 -0.000227029 0 -5.97367e-05 -0.000227695 0 -5.78645e-05 -0.000228342 0 -5.59928e-05 -0.000228968 0 -5.41218e-05 -0.000229573 0 -5.22514e-05 -0.000230159 0 -5.03816e-05 -0.000230724 0 -4.85123e-05 -0.000231268 0 -4.66437e-05 -0.000231793 0 -4.47757e-05 -0.000232297 0 -4.29083e-05 -0.000232781 0 -4.10415e-05 -0.000233244 0 -3.91753e-05 -0.000233687 0 -3.73097e-05 -0.00023411 0 -3.54443e-05 -0.000234513 0 -3.3579e-05 -0.000234895 0 -3.17137e-05 -0.000235256 0 -2.98483e-05 -0.000235597 0 -2.79829e-05 -0.000235917 0 -2.61175e-05 -0.000236216 0 -2.42521e-05 -0.000236495 0 -2.23866e-05 -0.000236754 0 -2.05212e-05 -0.000236991 0 -1.86557e-05 -0.000237209 0 -1.67902e-05 -0.000237405 0 -1.49247e-05 -0.000237581 0 -1.30592e-05 -0.000237737 0 -1.11936e-05 -0.000237872 0 -9.32808e-06 -0.000237986 0 -7.4625e-06 -0.00023808 0 -5.5969e-06 -0.000238153 0 -3.73129e-06 -0.000238205 0 -1.86565e-06 -0.000238237 0 0 -0.000238249 0 -0.000191256 -0.000138061 0 -0.000189135 -0.000140278 0 -0.00018702 -0.000142457 0 -0.000184911 -0.000144599 0 -0.000182808 -0.000146705 0 -0.000180711 -0.000148774 0 -0.000178621 -0.000150806 0 -0.000176536 -0.000152802 0 -0.000174458 -0.000154761 0 -0.000172385 -0.000156683 0 -0.000170319 -0.000158568 0 -0.000168259 -0.000160416 0 -0.000166205 -0.000162228 0 -0.000164157 -0.000164003 0 -0.000162115 -0.000165741 0 -0.000160079 -0.000167443 0 -0.00015805 -0.000169108 0 -0.000156026 -0.000170736 0 -0.000154009 -0.000172327 0 -0.000151997 -0.000173881 0 -0.000149992 -0.000175399 0 -0.000147993 -0.000176891 0 -0.000146001 -0.000178368 0 -0.000144014 -0.00017983 0 -0.000142034 -0.000181277 0 -0.000140061 -0.000182709 0 -0.000138093 -0.000184126 0 -0.000136132 -0.000185529 0 -0.000134178 -0.000186916 0 -0.00013223 -0.000188289 0 -0.000130288 -0.000189646 0 -0.000128352 -0.000190989 0 -0.000126423 -0.000192317 0 -0.0001245 -0.00019363 0 -0.000122583 -0.000194928 0 -0.000120673 -0.000196211 0 -0.000118769 -0.000197479 0 -0.000116872 -0.000198733 0 -0.000114981 -0.000199971 0 -0.000113096 -0.000201194 0 -0.000111217 -0.000202403 0 -0.000109342 -0.000203594 0 -0.000107469 -0.000204767 0 -0.000105596 -0.00020592 0 -0.000103724 -0.000207054 0 -0.000101853 -0.000208169 0 -9.99826e-05 -0.000209265 0 -9.81135e-05 -0.000210341 0 -9.62454e-05 -0.000211399 0 -9.43783e-05 -0.000212437 0 -9.25121e-05 -0.000213456 0 -9.06469e-05 -0.000214456 0 -8.87826e-05 -0.000215437 0 -8.69193e-05 -0.000216399 0 -8.5057e-05 -0.000217342 0 -8.31956e-05 -0.000218265 0 -8.13352e-05 -0.000219169 0 -7.94758e-05 -0.000220054 0 -7.76173e-05 -0.00022092 0 -7.57598e-05 -0.000221767 0 -7.39032e-05 -0.000222595 0 -7.20475e-05 -0.000223403 0 -7.01922e-05 -0.00022419 0 -6.83376e-05 -0.000224958 0 -6.64835e-05 -0.000225705 0 -6.463e-05 -0.000226432 0 -6.2777e-05 -0.000227139 0 -6.09246e-05 -0.000227825 0 -5.90728e-05 -0.000228491 0 -5.72215e-05 -0.000229137 0 -5.53708e-05 -0.000229763 0 -5.35207e-05 -0.000230368 0 -5.16711e-05 -0.000230953 0 -4.98221e-05 -0.000231518 0 -4.79736e-05 -0.000232063 0 -4.61257e-05 -0.000232587 0 -4.42784e-05 -0.000233091 0 -4.24317e-05 -0.000233575 0 -4.05855e-05 -0.000234039 0 -3.87399e-05 -0.000234482 0 -3.68948e-05 -0.000234905 0 -3.505e-05 -0.000235308 0 -3.32052e-05 -0.00023569 0 -3.13605e-05 -0.000236051 0 -2.95157e-05 -0.000236392 0 -2.76709e-05 -0.000236712 0 -2.58262e-05 -0.000237012 0 -2.39814e-05 -0.000237291 0 -2.21367e-05 -0.000237549 0 -2.02919e-05 -0.000237787 0 -1.84472e-05 -0.000238004 0 -1.66025e-05 -0.000238201 0 -1.47577e-05 -0.000238377 0 -1.2913e-05 -0.000238532 0 -1.10683e-05 -0.000238667 0 -9.22355e-06 -0.000238781 0 -7.37883e-06 -0.000238875 0 -5.53412e-06 -0.000238948 0 -3.68941e-06 -0.000239 0 -1.8447e-06 -0.000239032 0 0 -0.000239043 0 -0.000187704 -0.000138556 0 -0.000185714 -0.000140808 0 -0.000183726 -0.000143021 0 -0.000181739 -0.000145195 0 -0.000179753 -0.000147331 0 -0.000177769 -0.000149427 0 -0.000175786 -0.000151485 0 -0.000173804 -0.000153504 0 -0.000171823 -0.000155484 0 -0.000169844 -0.000157426 0 -0.000167866 -0.000159328 0 -0.000165889 -0.000161192 0 -0.000163914 -0.000163017 0 -0.00016194 -0.000164804 0 -0.000159967 -0.000166551 0 -0.000157995 -0.00016826 0 -0.000156025 -0.00016993 0 -0.000154056 -0.000171561 0 -0.000152088 -0.000173153 0 -0.000150121 -0.000174707 0 -0.000148156 -0.000176222 0 -0.000146194 -0.00017771 0 -0.000144238 -0.000179183 0 -0.000142287 -0.000180642 0 -0.000140341 -0.000182086 0 -0.000138401 -0.000183515 0 -0.000136467 -0.00018493 0 -0.000134538 -0.00018633 0 -0.000132615 -0.000187715 0 -0.000130697 -0.000189085 0 -0.000128784 -0.000190441 0 -0.000126877 -0.000191782 0 -0.000124976 -0.000193109 0 -0.00012308 -0.000194421 0 -0.000121189 -0.000195718 0 -0.000119304 -0.000197 0 -0.000117425 -0.000198268 0 -0.000115551 -0.000199521 0 -0.000113683 -0.00020076 0 -0.00011182 -0.000201983 0 -0.000109962 -0.000203192 0 -0.000108108 -0.000204384 0 -0.000106255 -0.000205557 0 -0.000104402 -0.000206711 0 -0.000102551 -0.000207846 0 -0.000100701 -0.000208961 0 -9.88518e-05 -0.000210057 0 -9.70036e-05 -0.000211134 0 -9.51563e-05 -0.000212191 0 -9.33101e-05 -0.00021323 0 -9.14649e-05 -0.000214249 0 -8.96207e-05 -0.000215249 0 -8.77775e-05 -0.00021623 0 -8.59353e-05 -0.000217191 0 -8.40941e-05 -0.000218134 0 -8.22539e-05 -0.000219057 0 -8.04147e-05 -0.000219961 0 -7.85765e-05 -0.000220846 0 -7.67394e-05 -0.000221711 0 -7.49032e-05 -0.000222558 0 -7.3068e-05 -0.000223385 0 -7.12336e-05 -0.000224192 0 -6.93997e-05 -0.000224979 0 -6.75663e-05 -0.000225746 0 -6.57335e-05 -0.000226493 0 -6.39011e-05 -0.00022722 0 -6.20693e-05 -0.000227926 0 -6.02381e-05 -0.000228612 0 -5.84073e-05 -0.000229278 0 -5.65771e-05 -0.000229923 0 -5.47474e-05 -0.000230549 0 -5.29182e-05 -0.000231154 0 -5.10896e-05 -0.000231739 0 -4.92614e-05 -0.000232304 0 -4.74338e-05 -0.000232848 0 -4.56068e-05 -0.000233372 0 -4.37802e-05 -0.000233877 0 -4.19542e-05 -0.00023436 0 -4.01287e-05 -0.000234824 0 -3.83037e-05 -0.000235267 0 -3.64792e-05 -0.00023569 0 -3.4655e-05 -0.000236093 0 -3.28309e-05 -0.000236475 0 -3.10068e-05 -0.000236837 0 -2.91826e-05 -0.000237178 0 -2.73586e-05 -0.000237498 0 -2.55345e-05 -0.000237798 0 -2.37104e-05 -0.000238077 0 -2.18864e-05 -0.000238335 0 -2.00624e-05 -0.000238573 0 -1.82385e-05 -0.00023879 0 -1.64145e-05 -0.000238987 0 -1.45906e-05 -0.000239163 0 -1.27667e-05 -0.000239318 0 -1.09428e-05 -0.000239453 0 -9.11894e-06 -0.000239567 0 -7.2951e-06 -0.000239661 0 -5.47129e-06 -0.000239733 0 -3.6475e-06 -0.000239786 0 -1.82374e-06 -0.000239817 0 0 -0.000239829 0 -0.00018424 -0.000139043 0 -0.000182373 -0.000141328 0 -0.000180502 -0.000143571 0 -0.000178629 -0.000145774 0 -0.000176752 -0.000147937 0 -0.000174872 -0.000150059 0 -0.00017299 -0.00015214 0 -0.000171104 -0.000154181 0 -0.000169215 -0.000156181 0 -0.000167323 -0.00015814 0 -0.000165428 -0.000160059 0 -0.00016353 -0.000161938 0 -0.000161629 -0.000163776 0 -0.000159725 -0.000165573 0 -0.000157817 -0.00016733 0 -0.000155907 -0.000169046 0 -0.000153994 -0.000170722 0 -0.000152077 -0.000172357 0 -0.000150158 -0.000173951 0 -0.000148235 -0.000175505 0 -0.000146309 -0.000177018 0 -0.000144385 -0.000178504 0 -0.000142464 -0.000179975 0 -0.000140549 -0.000181432 0 -0.000138638 -0.000182874 0 -0.000136732 -0.000184301 0 -0.000134831 -0.000185715 0 -0.000132934 -0.000187113 0 -0.000131042 -0.000188497 0 -0.000129154 -0.000189866 0 -0.000127271 -0.000191221 0 -0.000125393 -0.000192562 0 -0.00012352 -0.000193888 0 -0.000121651 -0.000195199 0 -0.000119787 -0.000196496 0 -0.000117927 -0.000197778 0 -0.000116073 -0.000199046 0 -0.000114223 -0.000200299 0 -0.000112377 -0.000201537 0 -0.000110536 -0.000202761 0 -0.0001087 -0.000203971 0 -0.000106867 -0.000205164 0 -0.000105035 -0.000206337 0 -0.000103204 -0.000207491 0 -0.000101373 -0.000208626 0 -9.95443e-05 -0.000209741 0 -9.77162e-05 -0.000210838 0 -9.58891e-05 -0.000211915 0 -9.4063e-05 -0.000212973 0 -9.2238e-05 -0.000214011 0 -9.0414e-05 -0.000215031 0 -8.8591e-05 -0.000216031 0 -8.67691e-05 -0.000217011 0 -8.49482e-05 -0.000217973 0 -8.31283e-05 -0.000218915 0 -8.13094e-05 -0.000219838 0 -7.94916e-05 -0.000220742 0 -7.76748e-05 -0.000221626 0 -7.5859e-05 -0.000222492 0 -7.40443e-05 -0.000223338 0 -7.22306e-05 -0.000224164 0 -7.04176e-05 -0.000224971 0 -6.86051e-05 -0.000225758 0 -6.67931e-05 -0.000226525 0 -6.49816e-05 -0.000227271 0 -6.31706e-05 -0.000227997 0 -6.136e-05 -0.000228703 0 -5.95499e-05 -0.000229389 0 -5.77403e-05 -0.000230055 0 -5.59312e-05 -0.0002307 0 -5.41226e-05 -0.000231326 0 -5.23145e-05 -0.000231931 0 -5.05068e-05 -0.000232515 0 -4.86997e-05 -0.00023308 0 -4.6893e-05 -0.000233624 0 -4.50868e-05 -0.000234149 0 -4.3281e-05 -0.000234653 0 -4.14758e-05 -0.000235137 0 -3.9671e-05 -0.0002356 0 -3.78668e-05 -0.000236044 0 -3.6063e-05 -0.000236467 0 -3.42594e-05 -0.00023687 0 -3.2456e-05 -0.000237252 0 -3.06525e-05 -0.000237614 0 -2.88491e-05 -0.000237955 0 -2.70457e-05 -0.000238275 0 -2.52424e-05 -0.000238575 0 -2.34391e-05 -0.000238854 0 -2.16358e-05 -0.000239112 0 -1.98326e-05 -0.00023935 0 -1.80295e-05 -0.000239567 0 -1.62263e-05 -0.000239764 0 -1.44233e-05 -0.00023994 0 -1.26202e-05 -0.000240095 0 -1.08172e-05 -0.00024023 0 -9.01423e-06 -0.000240344 0 -7.2113e-06 -0.000240437 0 -5.40842e-06 -0.00024051 0 -3.60557e-06 -0.000240562 0 -1.80277e-06 -0.000240594 0 0 -0.000240605 0 -0.000180865 -0.000139523 0 -0.00017911 -0.000141836 0 -0.000177348 -0.000144108 0 -0.000175579 -0.000146337 0 -0.000173804 -0.000148523 0 -0.000172021 -0.000150668 0 -0.000170232 -0.000152771 0 -0.000168435 -0.000154832 0 -0.000166632 -0.00015685 0 -0.000164822 -0.000158826 0 -0.000163004 -0.000160761 0 -0.00016118 -0.000162653 0 -0.000159349 -0.000164503 0 -0.000157511 -0.000166311 0 -0.000155667 -0.000168077 0 -0.000153815 -0.000169801 0 -0.000151956 -0.000171482 0 -0.000150091 -0.000173122 0 -0.000148218 -0.000174719 0 -0.000146339 -0.000176275 0 -0.000144453 -0.000177788 0 -0.000142565 -0.000179273 0 -0.000140681 -0.000180744 0 -0.000138801 -0.0001822 0 -0.000136925 -0.000183641 0 -0.000135053 -0.000185068 0 -0.000133184 -0.000186481 0 -0.00013132 -0.000187879 0 -0.000129459 -0.000189263 0 -0.000127602 -0.000190632 0 -0.000125749 -0.000191987 0 -0.0001239 -0.000193327 0 -0.000122055 -0.000194653 0 -0.000120213 -0.000195964 0 -0.000118376 -0.000197261 0 -0.000116542 -0.000198543 0 -0.000114712 -0.000199811 0 -0.000112886 -0.000201065 0 -0.000111064 -0.000202304 0 -0.000109246 -0.000203528 0 -0.000107432 -0.000204738 0 -0.00010562 -0.000205931 0 -0.000103809 -0.000207105 0 -0.000101999 -0.00020826 0 -0.00010019 -0.000209395 0 -9.83825e-05 -0.000210511 0 -9.65758e-05 -0.000211608 0 -9.47701e-05 -0.000212685 0 -9.29655e-05 -0.000213743 0 -9.11619e-05 -0.000214782 0 -8.93593e-05 -0.000215801 0 -8.75578e-05 -0.000216801 0 -8.57573e-05 -0.000217782 0 -8.39579e-05 -0.000218744 0 -8.21595e-05 -0.000219686 0 -8.03622e-05 -0.000220609 0 -7.85658e-05 -0.000221513 0 -7.67706e-05 -0.000222397 0 -7.49763e-05 -0.000223262 0 -7.31831e-05 -0.000224108 0 -7.1391e-05 -0.000224934 0 -6.95995e-05 -0.000225741 0 -6.78085e-05 -0.000226527 0 -6.6018e-05 -0.000227294 0 -6.42279e-05 -0.00022804 0 -6.24382e-05 -0.000228766 0 -6.0649e-05 -0.000229471 0 -5.88602e-05 -0.000230157 0 -5.70719e-05 -0.000230823 0 -5.5284e-05 -0.000231468 0 -5.34965e-05 -0.000232093 0 -5.17095e-05 -0.000232698 0 -4.99229e-05 -0.000233283 0 -4.81367e-05 -0.000233847 0 -4.6351e-05 -0.000234392 0 -4.45658e-05 -0.000234916 0 -4.27809e-05 -0.00023542 0 -4.09965e-05 -0.000235904 0 -3.92126e-05 -0.000236367 0 -3.74291e-05 -0.000236811 0 -3.5646e-05 -0.000237234 0 -3.38632e-05 -0.000237637 0 -3.20804e-05 -0.00023802 0 -3.02977e-05 -0.000238381 0 -2.85151e-05 -0.000238722 0 -2.67324e-05 -0.000239043 0 -2.49499e-05 -0.000239343 0 -2.31674e-05 -0.000239622 0 -2.1385e-05 -0.00023988 0 -1.96026e-05 -0.000240118 0 -1.78203e-05 -0.000240335 0 -1.6038e-05 -0.000240532 0 -1.42558e-05 -0.000240708 0 -1.24736e-05 -0.000240863 0 -1.06915e-05 -0.000240998 0 -8.90944e-06 -0.000241112 0 -7.12744e-06 -0.000241205 0 -5.3455e-06 -0.000241278 0 -3.56361e-06 -0.00024133 0 -1.78178e-06 -0.000241362 0 0 -0.000241372 0 -0.000177579 -0.000139996 0 -0.000175927 -0.000142335 0 -0.000174264 -0.00014463 0 -0.000172592 -0.000146882 0 -0.000170909 -0.000149091 0 -0.000169215 -0.000151256 0 -0.000167512 -0.000153378 0 -0.000165798 -0.000155457 0 -0.000164074 -0.000157492 0 -0.00016234 -0.000159484 0 -0.000160595 -0.000161432 0 -0.000158841 -0.000163337 0 -0.000157076 -0.000165199 0 -0.0001553 -0.000167018 0 -0.000153515 -0.000168793 0 -0.000151719 -0.000170524 0 -0.000149913 -0.000172212 0 -0.000148096 -0.000173857 0 -0.00014627 -0.000175459 0 -0.000144433 -0.000177017 0 -0.000142586 -0.000178531 0 -0.000140735 -0.000180017 0 -0.000138888 -0.000181488 0 -0.000137043 -0.000182945 0 -0.000135201 -0.000184388 0 -0.000133363 -0.000185815 0 -0.000131528 -0.000187229 0 -0.000129695 -0.000188628 0 -0.000127866 -0.000190012 0 -0.00012604 -0.000191382 0 -0.000124217 -0.000192737 0 -0.000122397 -0.000194078 0 -0.00012058 -0.000195405 0 -0.000118767 -0.000196717 0 -0.000116956 -0.000198014 0 -0.000115148 -0.000199297 0 -0.000113344 -0.000200566 0 -0.000111542 -0.00020182 0 -0.000109744 -0.000203059 0 -0.000107948 -0.000204284 0 -0.000106156 -0.000205495 0 -0.000104366 -0.000206688 0 -0.000102577 -0.000207863 0 -0.000100789 -0.000209018 0 -9.90017e-05 -0.000210153 0 -9.72156e-05 -0.00021127 0 -9.54306e-05 -0.000212367 0 -9.36466e-05 -0.000213444 0 -9.18637e-05 -0.000214502 0 -9.00818e-05 -0.000215541 0 -8.83009e-05 -0.000216561 0 -8.65211e-05 -0.000217561 0 -8.47423e-05 -0.000218542 0 -8.29645e-05 -0.000219504 0 -8.11878e-05 -0.000220446 0 -7.94121e-05 -0.000221369 0 -7.76374e-05 -0.000222273 0 -7.58638e-05 -0.000223157 0 -7.40912e-05 -0.000224022 0 -7.23197e-05 -0.000224867 0 -7.05492e-05 -0.000225693 0 -6.87794e-05 -0.0002265 0 -6.701e-05 -0.000227286 0 -6.5241e-05 -0.000228052 0 -6.34724e-05 -