<?xml version="1.0"?> 
<VTKFile type="StructuredGrid" version="0.1"> 
<StructuredGrid WholeExtent="0 20 0 10 0 10"> 
<Piece Extent="0 20 0 10 0 10"> 
<PointData Vectors="Displ">
<DataArray type="Float32" Name="Displ" format="ascii" NumberOfComponents="3"> 
9.53333e-12 0 0 9.50882e-12 6.83248e-13 0 9.43269e-12 1.38157e-12 0 9.30152e-12 2.08954e-12 0 9.11256e-12 2.80101e-12 0 8.86398e-12 3.50917e-12 0 8.55498e-12 4.20675e-12 0 8.18594e-12 4.88619e-12 0 7.75847e-12 5.5399e-12 0 7.27549e-12 6.1605e-12 0 6.74108e-12 6.74108e-12 0 6.1605e-12 7.27549e-12 0 5.5399e-12 7.75847e-12 0 4.88619e-12 8.18594e-12 0 4.20675e-12 8.55498e-12 0 3.50917e-12 8.86398e-12 0 2.80101e-12 9.11256e-12 0 2.08954e-12 9.30152e-12 0 1.38157e-12 9.43269e-12 0 6.83248e-13 9.50882e-12 0 0 9.53333e-12 0 8.83209e-12 0 0 8.80938e-12 6.3299e-13 0 8.73885e-12 1.27994e-12 0 8.61733e-12 1.93584e-12 0 8.44227e-12 2.59497e-12 0 8.21197e-12 3.25105e-12 0 7.9257e-12 3.89731e-12 0 7.5838e-12 4.52678e-12 0 7.18778e-12 5.1324e-12 0 6.74032e-12 5.70735e-12 0 6.24523e-12 6.24523e-12 0 5.70735e-12 6.74032e-12 0 5.1324e-12 7.18778e-12 0 4.52678e-12 7.5838e-12 0 3.89731e-12 7.9257e-12 0 3.25105e-12 8.21197e-12 0 2.59497e-12 8.44227e-12 0 1.93584e-12 8.61733e-12 0 1.27994e-12 8.73885e-12 0 6.3299e-13 8.80938e-12 0 0 8.83209e-12 0 8.26226e-12 0 0 8.24101e-12 5.92151e-13 0 8.17504e-12 1.19736e-12 0 8.06135e-12 1.81094e-12 0 7.89759e-12 2.42755e-12 0 7.68215e-12 3.04129e-12 0 7.41435e-12 3.64587e-12 0 7.09451e-12 4.23472e-12 0 6.72404e-12 4.80127e-12 0 6.30545e-12 5.33912e-12 0 5.8423e-12 5.8423e-12 0 5.33912e-12 6.30545e-12 0 4.80127e-12 6.72404e-12 0 4.23472e-12 7.09451e-12 0 3.64587e-12 7.41435e-12 0 3.04129e-12 7.68215e-12 0 2.42755e-12 7.89759e-12 0 1.81094e-12 8.06135e-12 0 1.19736e-12 8.17504e-12 0 5.92151e-13 8.24101e-12 0 0 8.26226e-12 0 7.7933e-12 0 0 7.77326e-12 5.58541e-13 0 7.71103e-12 1.1294e-12 0 7.6038e-12 1.70815e-12 0 7.44933e-12 2.28976e-12 0 7.24612e-12 2.86867e-12 0 6.99352e-12 3.43893e-12 0 6.69183e-12 3.99436e-12 0 6.34239e-12 4.52875e-12 0 5.94756e-12 5.03608e-12 0 5.5107e-12 5.5107e-12 0 5.03608e-12 5.94756e-12 0 4.52875e-12 6.34239e-12 0 3.99436e-12 6.69183e-12 0 3.43893e-12 6.99352e-12 0 2.86867e-12 7.24612e-12 0 2.28976e-12 7.44933e-12 0 1.70815e-12 7.6038e-12 0 1.1294e-12 7.71103e-12 0 5.58541e-13 7.77326e-12 0 0 7.7933e-12 0 7.40381e-12 0 0 7.38477e-12 5.30626e-13 0 7.32565e-12 1.07296e-12 0 7.22378e-12 1.62279e-12 0 7.07703e-12 2.17533e-12 0 6.88398e-12 2.7253e-12 0 6.644e-12 3.26706e-12 0 6.35739e-12 3.79473e-12 0 6.02542e-12 4.30242e-12 0 5.65031e-12 4.78439e-12 0 5.23529e-12 5.23529e-12 0 4.78439e-12 5.65031e-12 0 4.30242e-12 6.02542e-12 0 3.79473e-12 6.35739e-12 0 3.26706e-12 6.644e-12 0 2.7253e-12 6.88398e-12 0 2.17533e-12 7.07703e-12 0 1.62279e-12 7.22378e-12 0 1.07296e-12 7.32565e-12 0 5.30626e-13 7.38477e-12 0 0 7.40381e-12 0 7.0778e-12 0 0 7.0596e-12 5.07261e-13 0 7.00308e-12 1.02571e-12 0 6.90569e-12 1.55133e-12 0 6.76541e-12 2.07954e-12 0 6.58085e-12 2.6053e-12 0 6.35144e-12 3.1232e-12 0 6.07746e-12 3.62764e-12 0 5.7601e-12 4.11297e-12 0 5.40151e-12 4.57372e-12 0 5.00476e-12 5.00476e-12 0 4.57372e-12 5.40151e-12 0 4.11297e-12 5.7601e-12 0 3.62764e-12 6.07746e-12 0 3.1232e-12 6.35144e-12 0 2.6053e-12 6.58085e-12 0 2.07954e-12 6.76541e-12 0 1.55133e-12 6.90569e-12 0 1.02571e-12 7.00308e-12 0 5.07261e-13 7.0596e-12 0 0 7.0778e-12 0 6.80332e-12 0 0 6.78582e-12 4.87589e-13 0 6.7315e-12 9.85933e-13 0 6.63789e-12 1.49117e-12 0 6.50304e-12 1.9989e-12 0 6.32565e-12 2.50427e-12 0 6.10513e-12 3.00208e-12 0 5.84177e-12 3.48696e-12 0 5.53672e-12 3.95347e-12 0 5.19204e-12 4.39635e-12 0 4.81067e-12 4.81067e-12 0 4.39635e-12 5.19204e-12 0 3.95347e-12 5.53672e-12 0 3.48696e-12 5.84177e-12 0 3.00208e-12 6.10513e-12 0 2.50427e-12 6.32565e-12 0 1.9989e-12 6.50304e-12 0 1.49117e-12 6.63789e-12 0 9.85933e-13 6.7315e-12 0 4.87589e-13 6.78582e-12 0 0 6.80332e-12 0 6.57137e-12 0 0 6.55448e-12 4.70966e-13 0 6.502e-12 9.5232e-13 0 6.41158e-12 1.44033e-12 0 6.28134e-12 1.93075e-12 0 6.10999e-12 2.41889e-12 0 5.89699e-12 2.89973e-12 0 5.64261e-12 3.36808e-12 0 5.34796e-12 3.81868e-12 0 5.01503e-12 4.24646e-12 0 4.64666e-12 4.64666e-12 0 4.24646e-12 5.01503e-12 0 3.81868e-12 5.34796e-12 0 3.36808e-12 5.64261e-12 0 2.89973e-12 5.89699e-12 0 2.41889e-12 6.10999e-12 0 1.93075e-12 6.28134e-12 0 1.44033e-12 6.41158e-12 0 9.5232e-13 6.502e-12 0 4.70966e-13 6.55448e-12 0 0 6.57137e-12 0 6.37481e-12 0 0 6.35842e-12 4.56879e-13 0 6.30752e-12 9.23835e-13 0 6.2198e-12 1.39725e-12 0 6.09345e-12 1.873e-12 0 5.92723e-12 2.34654e-12 0 5.7206e-12 2.813e-12 0 5.47383e-12 3.26733e-12 0 5.18799e-12 3.70446e-12 0 4.86502e-12 4.11944e-12 0 4.50767e-12 4.50767e-12 0 4.11944e-12 4.86502e-12 0 3.70446e-12 5.18799e-12 0 3.26733e-12 5.47383e-12 0 2.813e-12 5.7206e-12 0 2.34654e-12 5.92723e-12 0 1.873e-12 6.09345e-12 0 1.39725e-12 6.2198e-12 0 9.23835e-13 6.30752e-12 0 4.56879e-13 6.35842e-12 0 0 6.37481e-12 0 6.20807e-12 0 0 6.19211e-12 4.44928e-13 0 6.14253e-12 8.9967e-13 0 6.05711e-12 1.3607e-12 0 5.93407e-12 1.82401e-12 0 5.77219e-12 2.28516e-12 0 5.57097e-12 2.73942e-12 0 5.33065e-12 3.18187e-12 0 5.05229e-12 3.60756e-12 0 4.73777e-12 4.01169e-12 0 4.38977e-12 4.38977e-12 0 4.01169e-12 4.73777e-12 0 3.60756e-12 5.05229e-12 0 3.18187e-12 5.33065e-12 0 2.73942e-12 5.57097e-12 0 2.28516e-12 5.77219e-12 0 1.82401e-12 5.93407e-12 0 1.3607e-12 6.05711e-12 0 8.9967e-13 6.14253e-12 0 4.44928e-13 6.19211e-12 0 0 6.20807e-12 0 6.06667e-12 0 0 6.05107e-12 4.34794e-13 0 6.00262e-12 8.79178e-13 0 5.91915e-12 1.32971e-12 0 5.7989e-12 1.78246e-12 0 5.64072e-12 2.23311e-12 0 5.44408e-12 2.67702e-12 0 5.20923e-12 3.10939e-12 0 4.93721e-12 3.52539e-12 0 4.62985e-12 3.92032e-12 0 4.28978e-12 4.28978e-12 0 3.92032e-12 4.62985e-12 0 3.52539e-12 4.93721e-12 0 3.10939e-12 5.20923e-12 0 2.67702e-12 5.44408e-12 0 2.23311e-12 5.64072e-12 0 1.78246e-12 5.7989e-12 0 1.32971e-12 5.91915e-12 0 8.79178e-13 6.00262e-12 0 4.34794e-13 6.05107e-12 0 0 6.06667e-12 0 9.53333e-12 0 -2.19544e-27 9.50882e-12 6.83248e-13 -3.11634e-27 9.43269e-12 1.38157e-12 -9.61538e-27 9.30152e-12 2.08954e-12 -6.56657e-27 9.11256e-12 2.80101e-12 -2.90254e-28 8.86398e-12 3.50917e-12 2.31582e-27 8.55498e-12 4.20675e-12 1.32489e-27 8.18594e-12 4.88619e-12 -3.28656e-28 7.75847e-12 5.5399e-12 -1.61943e-27 7.27549e-12 6.1605e-12 -3.1803e-27 6.74108e-12 6.74108e-12 -4.78076e-27 6.1605e-12 7.27549e-12 -4.67592e-27 5.5399e-12 7.75847e-12 -1.95545e-27 4.88619e-12 8.18594e-12 1.16116e-27 4.20675e-12 8.55498e-12 9.53998e-28 3.50917e-12 8.86398e-12 -2.59567e-27 2.80101e-12 9.11256e-12 -4.92046e-27 2.08954e-12 9.30152e-12 -3.07989e-27 1.38157e-12 9.43269e-12 -1.25893e-27 6.83248e-13 9.50882e-12 -4.28047e-27 0 9.53333e-12 7.36264e-28 8.83209e-12 0 -1.28449e-27 8.80938e-12 6.3299e-13 -8.96294e-28 8.73885e-12 1.27994e-12 -1.50277e-27 8.61733e-12 1.93584e-12 -3.58452e-27 8.44227e-12 2.59497e-12 -5.07255e-27 8.21197e-12 3.25105e-12 -4.67115e-27 7.9257e-12 3.89731e-12 -3.05721e-27 7.5838e-12 4.52678e-12 -1.66458e-27 7.18778e-12 5.1324e-12 -1.29001e-27 6.74032e-12 5.70735e-12 -1.95025e-27 6.24523e-12 6.24523e-12 -3.0024e-27 5.70735e-12 6.74032e-12 -3.29441e-27 5.1324e-12 7.18778e-12 -2.23573e-27 4.52678e-12 7.5838e-12 -8.2794e-28 3.89731e-12 7.9257e-12 -8.74006e-28 3.25105e-12 8.21197e-12 -2.47179e-27 2.59497e-12 8.44227e-12 -3.5496e-27 1.93584e-12 8.61733e-12 -2.50854e-27 1.27994e-12 8.73885e-12 -5.91054e-28 6.3299e-13 8.80938e-12 -5.34605e-28 0 8.83209e-12 -2.6759e-27 8.26226e-12 0 -1.10858e-27 8.24101e-12 5.92151e-13 4.8952e-28 8.17504e-12 1.19736e-12 7.56996e-28 8.06135e-12 1.81094e-12 -2.43391e-27 7.89759e-12 2.42755e-12 -5.12447e-27 7.68215e-12 3.04129e-12 -4.58775e-27 7.41435e-12 3.64587e-12 -1.9669e-27 7.09451e-12 4.23472e-12 1.43026e-28 6.72404e-12 4.80127e-12 4.67545e-28 6.30545e-12 5.33912e-12 -7.80945e-28 5.8423e-12 5.8423e-12 -2.49018e-27 5.33912e-12 6.30545e-12 -3.00656e-27 4.80127e-12 6.72404e-12 -1.6266e-27 4.23472e-12 7.09451e-12 -1.96316e-29 3.64587e-12 7.41435e-12 -9.0596e-28 3.04129e-12 7.68215e-12 -3.94467e-27 2.42755e-12 7.89759e-12 -5.09044e-27 1.81094e-12 8.06135e-12 -1.96991e-27 1.19736e-12 8.17504e-12 1.36716e-27 5.92151e-13 8.24101e-12 -3.9846e-28 0 8.26226e-12 6.66092e-28 7.7933e-12 0 4.08756e-28 7.77326e-12 5.58541e-13 1.47485e-28 7.71103e-12 1.1294e-12 -2.8716e-28 7.6038e-12 1.70815e-12 5.05766e-28 7.44933e-12 2.28976e-12 4.16461e-28 7.24612e-12 2.86867e-12 -1.46704e-27 6.99352e-12 3.43893e-12 -3.24687e-27 6.69183e-12 3.99436e-12 -2.77583e-27 6.34239e-12 4.52875e-12 -5.01558e-28 5.94756e-12 5.03608e-12 1.17144e-27 5.5107e-12 5.5107e-12 1.01648e-27 5.03608e-12 5.94756e-12 -6.43648e-29 4.52875e-12 6.34239e-12 -7.43987e-28 3.99436e-12 6.69183e-12 -1.0014e-27 3.43893e-12 6.99352e-12 -1.67127e-27 2.86867e-12 7.24612e-12 -2.68099e-27 2.28976e-12 7.44933e-12 -2.71731e-27 1.70815e-12 7.6038e-12 -1.12602e-27 1.1294e-12 7.71103e-12 4.14904e-28 5.58541e-13 7.77326e-12 -9.43038e-30 0 7.7933e-12 1.32762e-27 7.40381e-12 0 1.60709e-27 7.38477e-12 5.30626e-13 -2.11513e-28 7.32565e-12 1.07296e-12 -4.4605e-28 7.22378e-12 1.62279e-12 2.97901e-27 7.07703e-12 2.17533e-12 4.50293e-27 6.88398e-12 2.7253e-12 1.25666e-27 6.644e-12 3.26706e-12 -3.3262e-27 6.35739e-12 3.79473e-12 -4.50678e-27 6.02542e-12 4.30242e-12 -1.84709e-27 5.65031e-12 4.78439e-12 1.44742e-27 5.23529e-12 5.23529e-12 2.84287e-27 4.78439e-12 5.65031e-12 1.94895e-27 4.30242e-12 6.02542e-12 -2.04558e-28 3.79473e-12 6.35739e-12 -1.98942e-27 3.26706e-12 6.644e-12 -1.8756e-27 2.7253e-12 6.88398e-12 -1.42342e-28 2.17533e-12 7.07703e-12 9.38543e-28 1.62279e-12 7.22378e-12 -4.30062e-29 1.07296e-12 7.32565e-12 -1.11283e-27 5.30626e-13 7.38477e-12 4.17858e-28 0 7.40381e-12 4.17023e-28 7.0778e-12 0 1.42989e-27 7.0596e-12 5.07261e-13 4.7198e-28 7.00308e-12 1.02571e-12 1.64286e-27 6.90569e-12 1.55133e-12 3.23496e-27 6.76541e-12 2.07954e-12 3.54426e-27 6.58085e-12 2.6053e-12 2.06603e-27 6.35144e-12 3.1232e-12 -9.49777e-29 6.07746e-12 3.62764e-12 -1.43108e-27 5.7601e-12 4.11297e-12 -1.38504e-27 5.40151e-12 4.57372e-12 -3.67491e-28 5.00476e-12 5.00476e-12 7.63143e-28 4.57372e-12 5.40151e-12 9.75433e-28 4.11297e-12 5.7601e-12 -6.43781e-29 3.62764e-12 6.07746e-12 -1.17105e-27 3.1232e-12 6.35144e-12 -5.18427e-28 2.6053e-12 6.58085e-12 1.66583e-27 2.07954e-12 6.76541e-12 2.68399e-27 1.55133e-12 6.90569e-12 9.23688e-28 1.02571e-12 7.00308e-12 -9.98687e-28 5.07261e-13 7.0596e-12 4.05143e-28 0 7.0778e-12 2.98939e-29 6.80332e-12 0 7.33515e-28 6.78582e-12 4.87589e-13 1.63959e-27 6.7315e-12 9.85933e-13 3.42707e-27 6.63789e-12 1.49117e-12 1.98825e-27 6.50304e-12 1.9989e-12 6.29814e-28 6.32565e-12 2.50427e-12 1.63745e-27 6.10513e-12 3.00208e-12 3.29996e-27 5.84177e-12 3.48696e-12 3.01362e-27 5.53672e-12 3.95347e-12 7.78875e-28 5.19204e-12 4.39635e-12 -1.27518e-27 4.81067e-12 4.81067e-12 -1.75351e-27 4.39635e-12 5.19204e-12 -9.20846e-28 3.95347e-12 5.53672e-12 2.80246e-28 3.48696e-12 5.84177e-12 1.25711e-27 3.00208e-12 6.10513e-12 1.80399e-27 2.50427e-12 6.32565e-12 1.90488e-27 1.9989e-12 6.50304e-12 1.65816e-27 1.49117e-12 6.63789e-12 1.22019e-27 9.85933e-13 6.7315e-12 7.5202e-28 4.87589e-13 6.78582e-12 3.94399e-28 0 6.80332e-12 2.1933e-28 6.57137e-12 0 9.26558e-28 6.55448e-12 4.70966e-13 2.30535e-27 6.502e-12 9.5232e-13 2.68392e-27 6.41158e-12 1.44033e-12 8.23498e-28 6.28134e-12 1.93075e-12 -2.78357e-28 6.10999e-12 2.41889e-12 1.09857e-27 5.89699e-12 2.89973e-12 3.44346e-27 5.64261e-12 3.36808e-12 4.34206e-27 5.34796e-12 3.81868e-12 3.10999e-27 5.01503e-12 4.24646e-12 7.6091e-28 4.64666e-12 4.64666e-12 -1.16479e-27 4.24646e-12 5.01503e-12 -1.14192e-27 3.81868e-12 5.34796e-12 1.14572e-27 3.36808e-12 5.64261e-12 3.69551e-27 2.89973e-12 5.89699e-12 3.5154e-27 2.41889e-12 6.10999e-12 6.56134e-28 1.93075e-12 6.28134e-12 -1.12521e-27 1.44033e-12 6.41158e-12 6.76375e-28 9.5232e-13 6.502e-12 2.91012e-27 4.70966e-13 6.55448e-12 9.25432e-28 0 6.57137e-12 3.60406e-28 6.37481e-12 0 2.57983e-27 6.35842e-12 4.56879e-13 2.2529e-27 6.30752e-12 9.23835e-13 1.73498e-27 6.2198e-12 1.39725e-12 5.74547e-28 6.09345e-12 1.873e-12 -1.5392e-28 5.92723e-12 2.34654e-12 2.96546e-28 5.7206e-12 2.813e-12 1.65793e-27 5.47383e-12 3.26733e-12 3.06455e-27 5.18799e-12 3.70446e-12 3.557e-27 4.86502e-12 4.11944e-12 2.48402e-27 4.50767e-12 4.50767e-12 5.31059e-28 4.11944e-12 4.86502e-12 -1.55846e-28 3.70446e-12 5.18799e-12 1.62549e-27 3.26733e-12 5.47383e-12 3.79623e-27 2.813e-12 5.7206e-12 2.7148e-27 2.34654e-12 5.92723e-12 -1.34447e-27 1.873e-12 6.09345e-12 -3.28365e-27 1.39725e-12 6.2198e-12 8.21914e-29 9.23835e-13 6.30752e-12 4.05306e-27 4.56879e-13 6.35842e-12 1.78965e-27 0 6.37481e-12 5.56911e-28 6.20807e-12 0 4.49939e-27 6.19211e-12 4.44928e-13 1.60033e-27 6.14253e-12 8.9967e-13 4.04681e-27 6.05711e-12 1.3607e-12 1.36397e-27 5.93407e-12 1.82401e-12 -1.76124e-27 5.77219e-12 2.28516e-12 -1.10159e-27 5.57097e-12 2.73942e-12 1.53643e-27 5.33065e-12 3.18187e-12 2.54622e-27 5.05229e-12 3.60756e-12 1.34346e-27 4.73777e-12 4.01169e-12 -6.94364e-29 4.38977e-12 4.38977e-12 -3.35498e-28 4.01169e-12 4.73777e-12 2.08434e-28 3.60756e-12 5.05229e-12 5.52056e-28 3.18187e-12 5.33065e-12 8.15893e-29 2.73942e-12 5.57097e-12 -1.20681e-27 2.28516e-12 5.77219e-12 -2.4028e-27 1.82401e-12 5.93407e-12 -1.83897e-27 1.3607e-12 6.05711e-12 8.34241e-28 8.9967e-13 6.14253e-12 2.8635e-27 4.44928e-13 6.19211e-12 1.4025e-27 0 6.20807e-12 1.82452e-27 6.06667e-12 0 1.30077e-27 6.05107e-12 4.34794e-13 -8.48287e-28 6.00262e-12 8.79178e-13 2.77045e-27 5.91915e-12 1.32971e-12 3.16921e-27 5.7989e-12 1.78246e-12 1.47371e-27 5.64072e-12 2.23311e-12 2.01846e-28 5.44408e-12 2.67702e-12 8.931e-29 5.20923e-12 3.10939e-12 8.55788e-28 4.93721e-12 3.52539e-12 2.14476e-27 4.62985e-12 3.92032e-12 3.52012e-27 4.28978e-12 4.28978e-12 4.16474e-27 3.92032e-12 4.62985e-12 2.91908e-27 3.52539e-12 4.93721e-12 -3.30242e-28 3.10939e-12 5.20923e-12 -3.33165e-27 2.67702e-12 5.44408e-12 -2.84787e-27 2.23311e-12 5.64072e-12 1.12631e-27 1.78246e-12 5.7989e-12 4.58022e-27 1.32971e-12 5.91915e-12 3.70611e-27 8.79178e-13 6.00262e-12 -1.25006e-27 4.34794e-13 6.05107e-12 -4.86479e-27 0 6.06667e-12 6.25835e-27 9.53333e-12 0 -8.67688e-27 9.50882e-12 6.83248e-13 -8.52604e-27 9.43269e-12 1.38157e-12 -5.76155e-27 9.30152e-12 2.08954e-12 -5.66896e-27 9.11256e-12 2.80101e-12 -7.3483e-27 8.86398e-12 3.50917e-12 -8.88808e-27 8.55498e-12 4.20675e-12 -9.27803e-27 8.18594e-12 4.88619e-12 -8.30002e-27 7.75847e-12 5.5399e-12 -6.33828e-27 7.27549e-12 6.1605e-12 -4.18767e-27 6.74108e-12 6.74108e-12 -2.46409e-27 6.1605e-12 7.27549e-12 -1.40759e-27 5.5399e-12 7.75847e-12 -1.08873e-27 4.88619e-12 8.18594e-12 -1.623e-27 4.20675e-12 8.55498e-12 -2.95836e-27 3.50917e-12 8.86398e-12 -4.20655e-27 2.80101e-12 9.11256e-12 -3.69966e-27 2.08954e-12 9.30152e-12 -1.25378e-27 1.38157e-12 9.43269e-12 -1.15403e-28 6.83248e-13 9.50882e-12 -3.65856e-27 0 9.53333e-12 -6.28123e-27 8.83209e-12 0 -4.18904e-27 8.80938e-12 6.3299e-13 -4.26894e-27 8.73885e-12 1.27994e-12 -3.75836e-27 8.61733e-12 1.93584e-12 -3.98668e-27 8.44227e-12 2.59497e-12 -4.01126e-27 8.21197e-12 3.25105e-12 -3.32038e-27 7.9257e-12 3.89731e-12 -2.75669e-27 7.5838e-12 4.52678e-12 -3.17488e-27 7.18778e-12 5.1324e-12 -3.95799e-27 6.74032e-12 5.70735e-12 -3.57403e-27 6.24523e-12 6.24523e-12 -1.88587e-27 5.70735e-12 6.74032e-12 -7.46978e-28 5.1324e-12 7.18778e-12 -1.75023e-27 4.52678e-12 7.5838e-12 -3.99434e-27 3.89731e-12 7.9257e-12 -5.04717e-27 3.25105e-12 8.21197e-12 -4.27324e-27 2.59497e-12 8.44227e-12 -3.53973e-27 1.93584e-12 8.61733e-12 -4.33676e-27 1.27994e-12 8.73885e-12 -5.19555e-27 6.3299e-13 8.80938e-12 -3.73073e-27 0 8.83209e-12 -2.51317e-27 8.26226e-12 0 -2.0092e-27 8.24101e-12 5.92151e-13 -1.66672e-27 8.17504e-12 1.19736e-12 -1.69827e-27 8.06135e-12 1.81094e-12 -3.44963e-27 7.89759e-12 2.42755e-12 -4.47145e-27 7.68215e-12 3.04129e-12 -3.48094e-27 7.41435e-12 3.64587e-12 -2.07618e-27 7.09451e-12 4.23472e-12 -2.19787e-27 6.72404e-12 4.80127e-12 -3.30519e-27 6.30545e-12 5.33912e-12 -3.14962e-27 5.8423e-12 5.8423e-12 -1.29468e-27 5.33912e-12 6.30545e-12 -6.50654e-29 4.80127e-12 6.72404e-12 -1.52648e-27 4.23472e-12 7.09451e-12 -4.48237e-27 3.64587e-12 7.41435e-12 -5.73301e-27 3.04129e-12 7.68215e-12 -4.44583e-27 2.42755e-12 7.89759e-12 -3.08008e-27 1.81094e-12 8.06135e-12 -3.58072e-27 1.19736e-12 8.17504e-12 -3.97363e-27 5.92151e-13 8.24101e-12 -1.58438e-27 0 8.26226e-12 -2.25303e-27 7.7933e-12 0 -4.03552e-28 7.77326e-12 5.58541e-13 -5.76074e-28 7.71103e-12 1.1294e-12 -3.90047e-28 7.6038e-12 1.70815e-12 -6.16372e-28 7.44933e-12 2.28976e-12 -1.0008e-27 7.24612e-12 2.86867e-12 -1.30019e-27 6.99352e-12 3.43893e-12 -1.64021e-27 6.69183e-12 3.99436e-12 -2.11905e-27 6.34239e-12 4.52875e-12 -2.37107e-27 5.94756e-12 5.03608e-12 -1.84236e-27 5.5107e-12 5.5107e-12 -8.03924e-28 5.03608e-12 5.94756e-12 -5.61069e-28 4.52875e-12 6.34239e-12 -1.96589e-27 3.99436e-12 6.69183e-12 -3.96037e-27 3.43893e-12 6.99352e-12 -4.43036e-27 2.86867e-12 7.24612e-12 -3.00358e-27 2.28976e-12 7.44933e-12 -1.6044e-27 1.70815e-12 7.6038e-12 -1.76066e-27 1.1294e-12 7.71103e-12 -2.19443e-27 5.58541e-13 7.77326e-12 -8.93817e-28 0 7.7933e-12 -1.05805e-27 7.40381e-12 0 6.74114e-28 7.38477e-12 5.30626e-13 2.52733e-28 7.32565e-12 1.07296e-12 5.01662e-28 7.22378e-12 1.62279e-12 1.73462e-27 7.07703e-12 2.17533e-12 2.19836e-27 6.88398e-12 2.7253e-12 1.042e-27 6.644e-12 3.26706e-12 -6.4654e-28 6.35739e-12 3.79473e-12 -1.37448e-27 6.02542e-12 4.30242e-12 -9.64227e-28 5.65031e-12 4.78439e-12 -3.57221e-28 5.23529e-12 5.23529e-12 -3.04794e-28 4.78439e-12 5.65031e-12 -9.18195e-28 4.30242e-12 6.02542e-12 -1.84663e-27 3.79473e-12 6.35739e-12 -2.48733e-27 3.26706e-12 6.644e-12 -2.24844e-27 2.7253e-12 6.88398e-12 -1.22198e-27 2.17533e-12 7.07703e-12 -2.78425e-28 1.62279e-12 7.22378e-12 -1.68651e-28 1.07296e-12 7.32565e-12 -7.14276e-28 5.30626e-13 7.38477e-12 -1.00119e-27 0 7.40381e-12 1.87839e-29 7.0778e-12 0 1.27877e-27 7.0596e-12 5.07261e-13 1.46917e-27 7.00308e-12 1.02571e-12 1.33904e-27 6.90569e-12 1.55133e-12 1.86475e-27 6.76541e-12 2.07954e-12 2.09845e-27 6.58085e-12 2.6053e-12 1.46528e-27 6.35144e-12 3.1232e-12 5.68186e-28 6.07746e-12 3.62764e-12 2.3598e-28 5.7601e-12 4.11297e-12 4.55628e-28 5.40151e-12 4.57372e-12 5.55032e-28 5.00476e-12 5.00476e-12 1.97611e-28 4.57372e-12 5.40151e-12 -3.14283e-28 4.11297e-12 5.7601e-12 -5.49069e-28 3.62764e-12 6.07746e-12 -4.64534e-28 3.1232e-12 6.35144e-12 -3.00239e-28 2.6053e-12 6.58085e-12 -1.2687e-28 2.07954e-12 6.76541e-12 2.40121e-28 1.55133e-12 6.90569e-12 7.19256e-28 1.02571e-12 7.00308e-12 5.15179e-28 5.07261e-13 7.0596e-12 -7.58902e-28 0 7.0778e-12 3.84994e-29 6.80332e-12 0 1.95878e-27 6.78582e-12 4.87589e-13 2.64402e-27 6.7315e-12 9.85933e-13 2.1588e-27 6.63789e-12 1.49117e-12 1.22301e-27 6.50304e-12 1.9989e-12 7.8437e-28 6.32565e-12 2.50427e-12 1.1582e-27 6.10513e-12 3.00208e-12 1.73692e-27 5.84177e-12 3.48696e-12 1.76933e-27 5.53672e-12 3.95347e-12 1.22728e-27 5.19204e-12 4.39635e-12 6.74543e-28 4.81067e-12 4.81067e-12 5.03694e-28 4.39635e-12 5.19204e-12 6.83432e-28 3.95347e-12 5.53672e-12 9.59323e-28 3.48696e-12 5.84177e-12 1.0702e-27 3.00208e-12 6.10513e-12 8.55196e-28 2.50427e-12 6.32565e-12 4.92686e-28 1.9989e-12 6.50304e-12 4.91467e-28 1.49117e-12 6.63789e-12 9.94683e-28 9.85933e-13 6.7315e-12 1.17639e-27 4.87589e-13 6.78582e-12 1.99455e-28 0 6.80332e-12 -1.25494e-28 6.57137e-12 0 2.92811e-27 6.55448e-12 4.70966e-13 3.20353e-27 6.502e-12 9.5232e-13 2.85362e-27 6.41158e-12 1.44033e-12 1.71447e-27 6.28134e-12 1.93075e-12 1.19201e-27 6.10999e-12 2.41889e-12 1.86872e-27 5.89699e-12 2.89973e-12 2.68507e-27 5.64261e-12 3.36808e-12 2.39756e-27 5.34796e-12 3.81868e-12 1.19912e-27 5.01503e-12 4.24646e-12 3.71871e-28 4.64666e-12 4.64666e-12 5.52854e-28 4.24646e-12 5.01503e-12 1.20596e-27 3.81868e-12 5.34796e-12 1.53342e-27 3.36808e-12 5.64261e-12 1.40517e-27 2.89973e-12 5.89699e-12 1.2082e-27 2.41889e-12 6.10999e-12 1.15871e-27 1.93075e-12 6.28134e-12 1.12517e-27 1.44033e-12 6.41158e-12 1.00693e-27 9.5232e-13 6.502e-12 1.07188e-27 4.70966e-13 6.55448e-12 1.42878e-27 0 6.57137e-12 5.29242e-28 6.37481e-12 0 3.2535e-27 6.35842e-12 4.56879e-13 3.36827e-27 6.30752e-12 9.23835e-13 3.36438e-27 6.2198e-12 1.39725e-12 2.9471e-27 6.09345e-12 1.873e-12 2.79934e-27 5.92723e-12 2.34654e-12 3.15927e-27 5.7206e-12 2.813e-12 3.34254e-27 5.47383e-12 3.26733e-12 2.65721e-27 5.18799e-12 3.70446e-12 1.41387e-27 4.86502e-12 4.11944e-12 6.34736e-28 4.50767e-12 4.50767e-12 7.42244e-28 4.11944e-12 4.86502e-12 1.17713e-27 3.70446e-12 5.18799e-12 1.26849e-27 3.26733e-12 5.47383e-12 1.11054e-27 2.813e-12 5.7206e-12 1.2767e-27 2.34654e-12 5.92723e-12 1.76517e-27 1.873e-12 6.09345e-12 1.80553e-27 1.39725e-12 6.2198e-12 1.0499e-27 9.23835e-13 6.30752e-12 6.20175e-28 4.56879e-13 6.35842e-12 1.67994e-27 0 6.37481e-12 1.43321e-27 6.20807e-12 0 2.48201e-27 6.19211e-12 4.44928e-13 4.03352e-27 6.14253e-12 8.9967e-13 4.16175e-27 6.05711e-12 1.3607e-12 2.73827e-27 5.93407e-12 1.82401e-12 1.96013e-27 5.77219e-12 2.28516e-12 2.86689e-27 5.57097e-12 2.73942e-12 4.13272e-27 5.33065e-12 3.18187e-12 4.01735e-27 5.05229e-12 3.60756e-12 2.54595e-27 4.73777e-12 4.01169e-12 1.1566e-27 4.38977e-12 4.38977e-12 7.26157e-28 4.01169e-12 4.73777e-12 9.47719e-28 3.60756e-12 5.05229e-12 1.16366e-27 3.18187e-12 5.33065e-12 1.22229e-27 2.73942e-12 5.57097e-12 1.34965e-27 2.28516e-12 5.77219e-12 1.54354e-27 1.82401e-12 5.93407e-12 1.44453e-27 1.3607e-12 6.05711e-12 8.79469e-28 8.9967e-13 6.14253e-12 3.42157e-28 4.44928e-13 6.19211e-12 4.99541e-28 0 6.20807e-12 8.06714e-28 6.06667e-12 0 5.79596e-27 6.05107e-12 4.34794e-13 6.14838e-27 6.00262e-12 8.79178e-13 7.65204e-27 5.91915e-12 1.32971e-12 -5.9241e-28 5.7989e-12 1.78246e-12 -5.89776e-27 5.64072e-12 2.23311e-12 -7.46096e-28 5.44408e-12 2.67702e-12 7.14767e-27 5.20923e-12 3.10939e-12 7.22653e-27 4.93721e-12 3.52539e-12 -2.1482e-29 4.62985e-12 3.92032e-12 -5.46215e-27 4.28978e-12 4.28978e-12 -4.30956e-27 3.92032e-12 4.62985e-12 -1.14741e-28 3.52539e-12 4.93721e-12 1.71186e-27 3.10939e-12 5.20923e-12 5.06257e-28 2.67702e-12 5.44408e-12 -7.99204e-28 2.23311e-12 5.64072e-12 -7.83122e-28 1.78246e-12 5.7989e-12 -7.90629e-28 1.32971e-12 5.91915e-12 -1.6626e-27 8.79178e-13 6.00262e-12 -8.31925e-28 4.34794e-13 6.05107e-12 3.07509e-27 0 6.06667e-12 -2.77565e-27 9.53333e-12 0 -7.80909e-27 9.50882e-12 6.83248e-13 -7.7526e-27 9.43269e-12 1.38157e-12 -7.72063e-27 9.30152e-12 2.08954e-12 -9.35093e-27 9.11256e-12 2.80101e-12 -9.85694e-27 8.86398e-12 3.50917e-12 -7.82879e-27 8.55498e-12 4.20675e-12 -5.23731e-27 8.18594e-12 4.88619e-12 -4.47535e-27 7.75847e-12 5.5399e-12 -5.06421e-27 7.27549e-12 6.1605e-12 -4.53046e-27 6.74108e-12 6.74108e-12 -2.43887e-27 6.1605e-12 7.27549e-12 -1.46186e-27 5.5399e-12 7.75847e-12 -3.73886e-27 4.88619e-12 8.18594e-12 -7.27184e-27 4.20675e-12 8.55498e-12 -7.76585e-27 3.50917e-12 8.86398e-12 -4.79871e-27 2.80101e-12 9.11256e-12 -2.97088e-27 2.08954e-12 9.30152e-12 -5.27827e-27 1.38157e-12 9.43269e-12 -7.22478e-27 6.83248e-13 9.50882e-12 -2.69974e-27 0 9.53333e-12 -6.34763e-28 8.83209e-12 0 -5.5869e-27 8.80938e-12 6.3299e-13 -5.5758e-27 8.73885e-12 1.27994e-12 -5.51082e-27 8.61733e-12 1.93584e-12 -5.25234e-27 8.44227e-12 2.59497e-12 -5.38281e-27 8.21197e-12 3.25105e-12 -5.95102e-27 7.9257e-12 3.89731e-12 -6.07072e-27 7.5838e-12 4.52678e-12 -5.00202e-27 7.18778e-12 5.1324e-12 -3.33401e-27 6.74032e-12 5.70735e-12 -2.55188e-27 6.24523e-12 6.24523e-12 -3.21221e-27 5.70735e-12 6.74032e-12 -4.41084e-27 5.1324e-12 7.18778e-12 -4.98226e-27 4.52678e-12 7.5838e-12 -4.71634e-27 3.89731e-12 7.9257e-12 -4.17286e-27 3.25105e-12 8.21197e-12 -3.81315e-27 2.59497e-12 8.44227e-12 -3.73434e-27 1.93584e-12 8.61733e-12 -3.78724e-27 1.27994e-12 8.73885e-12 -3.70224e-27 6.3299e-13 8.80938e-12 -3.42e-27 0 8.83209e-12 -3.9595e-27 8.26226e-12 0 -1.58797e-27 8.24101e-12 5.92151e-13 -2.20199e-27 8.17504e-12 1.19736e-12 -3.9829e-27 8.06135e-12 1.81094e-12 -3.27136e-27 7.89759e-12 2.42755e-12 -2.73479e-27 7.68215e-12 3.04129e-12 -4.08918e-27 7.41435e-12 3.64587e-12 -5.56263e-27 7.09451e-12 4.23472e-12 -4.90801e-27 6.72404e-12 4.80127e-12 -2.76713e-27 6.30545e-12 5.33912e-12 -1.86453e-27 5.8423e-12 5.8423e-12 -3.17522e-27 5.33912e-12 6.30545e-12 -4.8277e-27 4.80127e-12 6.72404e-12 -4.79843e-27 4.23472e-12 7.09451e-12 -3.61592e-27 3.64587e-12 7.41435e-12 -3.43199e-27 3.04129e-12 7.68215e-12 -4.6485e-27 2.42755e-12 7.89759e-12 -5.22155e-27 1.81094e-12 8.06135e-12 -3.77732e-27 1.19736e-12 8.17504e-12 -2.38607e-27 5.92151e-13 8.24101e-12 -3.81505e-27 0 8.26226e-12 -3.72868e-27 7.7933e-12 0 -6.17698e-28 7.77326e-12 5.58541e-13 -7.24497e-28 7.71103e-12 1.1294e-12 -3.85463e-28 7.6038e-12 1.70815e-12 -9.6353e-28 7.44933e-12 2.28976e-12 -1.87289e-27 7.24612e-12 2.86867e-12 -2.49835e-27 6.99352e-12 3.43893e-12 -2.88066e-27 6.69183e-12 3.99436e-12 -3.2304e-27 6.34239e-12 4.52875e-12 -3.37682e-27 5.94756e-12 5.03608e-12 -2.93882e-27 5.5107e-12 5.5107e-12 -2.05404e-27 5.03608e-12 5.94756e-12 -1.55001e-27 4.52875e-12 6.34239e-12 -2.08703e-27 3.99436e-12 6.69183e-12 -3.31125e-27 3.43893e-12 6.99352e-12 -4.18374e-27 2.86867e-12 7.24612e-12 -4.13563e-27 2.28976e-12 7.44933e-12 -3.38599e-27 1.70815e-12 7.6038e-12 -2.57556e-27 1.1294e-12 7.71103e-12 -2.40242e-27 5.58541e-13 7.77326e-12 -2.97278e-27 0 7.7933e-12 -2.10956e-27 7.40381e-12 0 -6.76567e-28 7.38477e-12 5.30626e-13 -1.33659e-28 7.32565e-12 1.07296e-12 2.08945e-27 7.22378e-12 1.62279e-12 6.5928e-28 7.07703e-12 2.17533e-12 -1.26593e-27 6.88398e-12 2.7253e-12 -1.17547e-27 6.644e-12 3.26706e-12 -4.32074e-28 6.35739e-12 3.79473e-12 -1.18014e-27 6.02542e-12 4.30242e-12 -2.8689e-27 5.65031e-12 4.78439e-12 -3.04377e-27 5.23529e-12 5.23529e-12 -1.14466e-27 4.78439e-12 5.65031e-12 4.52206e-28 4.30242e-12 6.02542e-12 -4.82325e-28 3.79473e-12 6.35739e-12 -2.95599e-27 3.26706e-12 6.644e-12 -3.94115e-27 2.7253e-12 6.88398e-12 -2.56341e-27 2.17533e-12 7.07703e-12 -1.02885e-27 1.62279e-12 7.22378e-12 -1.34368e-27 1.07296e-12 7.32565e-12 -2.35568e-27 5.30626e-13 7.38477e-12 -1.65747e-27 0 7.40381e-12 -1.14833e-27 7.0778e-12 0 1.32153e-28 7.0596e-12 5.07261e-13 6.93683e-28 7.00308e-12 1.02571e-12 1.84778e-27 6.90569e-12 1.55133e-12 1.01246e-27 6.76541e-12 2.07954e-12 -7.51175e-29 6.58085e-12 2.6053e-12 -4.23848e-29 6.35144e-12 3.1232e-12 4.56027e-28 6.07746e-12 3.62764e-12 2.56293e-28 5.7601e-12 4.11297e-12 -5.98792e-28 5.40151e-12 4.57372e-12 -1.13853e-27 5.00476e-12 5.00476e-12 -9.94544e-28 4.57372e-12 5.40151e-12 -8.39499e-28 4.11297e-12 5.7601e-12 -1.3256e-27 3.62764e-12 6.07746e-12 -2.02453e-27 3.1232e-12 6.35144e-12 -1.89485e-27 2.6053e-12 6.58085e-12 -8.91855e-28 2.07954e-12 6.76541e-12 -2.66302e-28 1.55133e-12 6.90569e-12 -8.28279e-28 1.02571e-12 7.00308e-12 -1.40778e-27 5.07261e-13 7.0596e-12 -5.37948e-28 0 7.0778e-12 -1.2189e-27 6.80332e-12 0 1.47806e-27 6.78582e-12 4.87589e-13 1.75019e-27 6.7315e-12 9.85933e-13 1.07257e-27 6.63789e-12 1.49117e-12 1.08643e-27 6.50304e-12 1.9989e-12 1.21782e-27 6.32565e-12 2.50427e-12 9.80865e-28 6.10513e-12 3.00208e-12 7.78603e-28 5.84177e-12 3.48696e-12 1.06074e-27 5.53672e-12 3.95347e-12 1.38774e-27 5.19204e-12 4.39635e-12 7.88786e-28 4.81067e-12 4.81067e-12 -7.6869e-28 4.39635e-12 5.19204e-12 -2.00263e-27 3.95347e-12 5.53672e-12 -1.76634e-27 3.48696e-12 5.84177e-12 -4.89718e-28 3.00208e-12 6.10513e-12 3.59616e-28 2.50427e-12 6.32565e-12 1.9164e-28 1.9989e-12 6.50304e-12 -2.49163e-28 1.49117e-12 6.63789e-12 -1.21918e-28 9.85933e-13 6.7315e-12 3.79777e-28 4.87589e-13 6.78582e-12 3.58302e-28 0 6.80332e-12 -7.40384e-28 6.57137e-12 0 2.5142e-27 6.55448e-12 4.70966e-13 2.69816e-27 6.502e-12 9.5232e-13 2.31514e-27 6.41158e-12 1.44033e-12 1.97288e-27 6.28134e-12 1.93075e-12 1.8281e-27 6.10999e-12 2.41889e-12 1.83356e-27 5.89699e-12 2.89973e-12 1.83086e-27 5.64261e-12 3.36808e-12 1.65867e-27 5.34796e-12 3.81868e-12 1.27086e-27 5.01503e-12 4.24646e-12 7.51511e-28 4.64666e-12 4.64666e-12 3.06404e-28 4.24646e-12 5.01503e-12 2.29631e-28 3.81868e-12 5.34796e-12 6.12223e-28 3.36808e-12 5.64261e-12 1.06495e-27 2.89973e-12 5.89699e-12 1.00479e-27 2.41889e-12 6.10999e-12 5.36423e-28 1.93075e-12 6.28134e-12 5.73923e-28 1.44033e-12 6.41158e-12 1.53636e-27 9.5232e-13 6.502e-12 2.20299e-27 4.70966e-13 6.55448e-12 1.21758e-27 0 6.57137e-12 1.29922e-27 6.37481e-12 0 3.60672e-27 6.35842e-12 4.56879e-13 3.68396e-27 6.30752e-12 9.23835e-13 5.06965e-27 6.2198e-12 1.39725e-12 3.38526e-27 6.09345e-12 1.873e-12 1.69847e-27 5.92723e-12 2.34654e-12 2.18023e-27 5.7206e-12 2.813e-12 3.17743e-27 5.47383e-12 3.26733e-12 2.37922e-27 5.18799e-12 3.70446e-12 3.65162e-28 4.86502e-12 4.11944e-12 -2.05849e-28 4.50767e-12 4.50767e-12 1.49889e-27 4.11944e-12 4.86502e-12 3.37592e-27 3.70446e-12 5.18799e-12 3.18518e-27 3.26733e-12 5.47383e-12 1.36022e-27 2.813e-12 5.7206e-12 1.93978e-28 2.34654e-12 5.92723e-12 7.6635e-28 1.873e-12 6.09345e-12 2.15606e-27 1.39725e-12 6.2198e-12 2.95819e-27 9.23835e-13 6.30752e-12 2.69718e-27 4.56879e-13 6.35842e-12 2.00089e-27 0 6.37481e-12 2.85332e-27 6.20807e-12 0 5.65999e-27 6.19211e-12 4.44928e-13 5.1825e-27 6.14253e-12 8.9967e-13 6.67601e-27 6.05711e-12 1.3607e-12 4.37731e-27 5.93407e-12 1.82401e-12 1.86382e-27 5.77219e-12 2.28516e-12 1.97068e-27 5.57097e-12 2.73942e-12 3.21426e-27 5.33065e-12 3.18187e-12 3.03801e-27 5.05229e-12 3.60756e-12 1.48106e-27 4.73777e-12 4.01169e-12 5.96447e-28 4.38977e-12 4.38977e-12 1.21696e-27 4.01169e-12 4.73777e-12 2.0099e-27 3.60756e-12 5.05229e-12 1.53277e-27 3.18187e-12 5.33065e-12 2.97474e-28 2.73942e-12 5.57097e-12 5.65407e-29 2.28516e-12 5.77219e-12 1.22061e-27 1.82401e-12 5.93407e-12 2.30211e-27 1.3607e-12 6.05711e-12 2.0694e-27 8.9967e-13 6.14253e-12 1.47914e-27 4.44928e-13 6.19211e-12 2.11365e-27 0 6.20807e-12 1.67894e-27 6.06667e-12 0 7.59529e-27 6.05107e-12 4.34794e-13 7.30149e-27 6.00262e-12 8.79178e-13 5.99926e-27 5.91915e-12 1.32971e-12 5.92771e-27 5.7989e-12 1.78246e-12 5.27214e-27 5.64072e-12 2.23311e-12 3.17364e-27 5.44408e-12 2.67702e-12 1.43017e-27 5.20923e-12 3.10939e-12 1.82181e-27 4.93721e-12 3.52539e-12 3.15894e-27 4.62985e-12 3.92032e-12 2.40928e-27 4.28978e-12 4.28978e-12 -6.38067e-28 3.92032e