<?xml version="1.0"?> 
<VTKFile type="StructuredGrid" version="0.1"> 
<StructuredGrid WholeExtent="0 20 0 10 0 10"> 
<Piece Extent="0 20 0 10 0 10"> 
<PointData Scalars="Stress components">
<DataArray type="Float32" Name="sigma_xx" format="ascii" NumberOfComponents="1"> 
-0.999273 -0.985578 -0.943277 -0.871183 -0.769107 -0.638012 -0.480108 -0.298862 -0.0989139 0.114107 0.333853 0.553599 0.76662 0.966568 1.14781 1.30572 1.43681 1.53889 1.61098 1.65328 1.66698 -0.768582 -0.757262 -0.722298 -0.662707 -0.578334 -0.469975 -0.339456 -0.189644 -0.0243724 0.151704 0.33334 0.514975 0.691052 0.856323 1.00614 1.13665 1.24501 1.32939 1.38898 1.42394 1.43526 -0.592536 -0.583024 -0.553644 -0.503572 -0.432676 -0.341625 -0.231954 -0.106071 0.0328022 0.180754 0.333377 0.486 0.633953 0.772825 0.898709 1.00838 1.09943 1.17033 1.2204 1.24978 1.25929 -0.455768 -0.447663 -0.422628 -0.37996 -0.319548 -0.241961 -0.148507 -0.0412389 0.077098 0.203172 0.333226 0.463279 0.589353 0.70769 0.814959 0.908412 0.985999 1.04641 1.08908 1.11411 1.12222 -0.346728 -0.33974 -0.318157 -0.281372 -0.229289 -0.162399 -0.0818302 0.0106486 0.11267 0.221361 0.333484 0.445607 0.554299 0.65632 0.748799 0.829367 0.896257 0.94834 0.985125 1.00671 1.0137 -0.259392 -0.253304 -0.234499 -0.202451 -0.157073 -0.098796 -0.0286009 0.0519709 0.140857 0.235554 0.33324 0.430927 0.525624 0.614509 0.695081 0.765276 0.823554 0.868931 0.90098 0.919784 0.925872 -0.187501 -0.18215 -0.165624 -0.137458 -0.0975786 -0.0463617 0.0153291 0.0861393 0.164256 0.24748 0.333332 0.419183 0.502407 0.580524 0.651334 0.713025 0.764242 0.804122 0.832288 0.848814 0.854164 -0.127992 -0.123253 -0.108614 -0.0836649 -0.0483398 -0.0029721 0.0516733 0.114397 0.183592 0.257312 0.333359 0.409405 0.483125 0.552321 0.615044 0.669689 0.715057 0.750382 0.775331 0.78997 0.79471 -0.0782024 -0.0739748 -0.0609169 -0.0386621 -0.00715196 0.0333161 0.08206 0.138009 0.199732 0.26549 0.333324 0.401158 0.466916 0.528639 0.584588 0.633332 0.6738 0.70531 0.727565 0.740623 0.74485 -0.0360072 -0.0322129 -0.0204936 -0.000519989 0.0277603 0.0640802 0.107828 0.158042 0.213438 0.272455 0.333336 0.394217 0.453234 0.50863 0.558845 0.602592 0.638912 0.667192 0.687166 0.698885 0.702679 1.77133e-05 0.00344199 0.0140186 0.0320445 0.0575671 0.0903455 0.129827 0.175145 0.225139 0.278402 0.333346 0.38829 0.441553 0.491547 0.536865 0.576346 0.609125 0.634647 0.652673 0.66325 0.666674 -0.999273 -0.985578 -0.943277 -0.871183 -0.769107 -0.638012 -0.480108 -0.298862 -0.0989139 0.114107 0.333853 0.553599 0.76662 0.966568 1.14781 1.30572 1.43681 1.53889 1.61098 1.65328 1.66698 -0.768582 -0.757262 -0.722298 -0.662707 -0.578334 -0.469975 -0.339456 -0.189644 -0.0243724 0.151704 0.33334 0.514975 0.691052 0.856323 1.00614 1.13665 1.24501 1.32939 1.38898 1.42394 1.43526 -0.592536 -0.583024 -0.553644 -0.503572 -0.432676 -0.341625 -0.231954 -0.106071 0.0328022 0.180754 0.333377 0.486 0.633953 0.772825 0.898709 1.00838 1.09943 1.17033 1.2204 1.24978 1.25929 -0.455768 -0.447663 -0.422628 -0.37996 -0.319548 -0.241961 -0.148507 -0.0412389 0.077098 0.203172 0.333226 0.463279 0.589353 0.70769 0.814959 0.908412 0.985999 1.04641 1.08908 1.11411 1.12222 -0.346728 -0.33974 -0.318157 -0.281372 -0.229289 -0.162399 -0.0818302 0.0106486 0.11267 0.221361 0.333484 0.445607 0.554299 0.65632 0.748799 0.829367 0.896257 0.94834 0.985125 1.00671 1.0137 -0.259392 -0.253304 -0.234499 -0.202451 -0.157073 -0.098796 -0.0286009 0.0519709 0.140857 0.235554 0.33324 0.430927 0.525624 0.614509 0.695081 0.765276 0.823554 0.868931 0.90098 0.919784 0.925872 -0.187501 -0.18215 -0.165624 -0.137458 -0.0975786 -0.0463617 0.0153291 0.0861393 0.164256 0.24748 0.333332 0.419183 0.502407 0.580524 0.651334 0.713025 0.764242 0.804122 0.832288 0.848814 0.854164 -0.127992 -0.123253 -0.108614 -0.0836649 -0.0483398 -0.0029721 0.0516733 0.114397 0.183592 0.257312 0.333359 0.409405 0.483125 0.552321 0.615044 0.669689 0.715057 0.750382 0.775331 0.78997 0.79471 -0.0782024 -0.0739748 -0.0609169 -0.0386621 -0.00715196 0.0333161 0.08206 0.138009 0.199732 0.26549 0.333324 0.401158 0.466916 0.528639 0.584588 0.633332 0.6738 0.70531 0.727565 0.740623 0.74485 -0.0360072 -0.0322129 -0.0204936 -0.000519989 0.0277603 0.0640802 0.107828 0.158042 0.213438 0.272455 0.333336 0.394217 0.453234 0.50863 0.558845 0.602592 0.638912 0.667192 0.687166 0.698885 0.702679 1.77133e-05 0.00344199 0.0140186 0.0320445 0.0575671 0.0903455 0.129827 0.175145 0.225139 0.278402 0.333346 0.38829 0.441553 0.491547 0.536865 0.576346 0.609125 0.634647 0.652673 0.66325 0.666674 -0.999273 -0.985578 -0.943277 -0.871183 -0.769107 -0.638012 -0.480108 -0.298862 -0.0989139 0.114107 0.333853 0.553599 0.76662 0.966568 1.14781 1.30572 1.43681 1.53889 1.61098 1.65328 1.66698 -0.768582 -0.757262 -0.722298 -0.662707 -0.578334 -0.469975 -0.339456 -0.189644 -0.0243724 0.151704 0.33334 0.514975 0.691052 0.856323 1.00614 1.13665 1.24501 1.32939 1.38898 1.42394 1.43526 -0.592536 -0.583024 -0.553644 -0.503572 -0.432676 -0.341625 -0.231954 -0.106071 0.0328022 0.180754 0.333377 0.486 0.633953 0.772825 0.898709 1.00838 1.09943 1.17033 1.2204 1.24978 1.25929 -0.455768 -0.447663 -0.422628 -0.37996 -0.319548 -0.241961 -0.148507 -0.0412389 0.077098 0.203172 0.333226 0.463279 0.589353 0.70769 0.814959 0.908412 0.985999 1.04641 1.08908 1.11411 1.12222 -0.346728 -0.33974 -0.318157 -0.281372 -0.229289 -0.162399 -0.0818302 0.0106486 0.11267 0.221361 0.333484 0.445607 0.554299 0.65632 0.748799 0.829367 0.896257 0.94834 0.985125 1.00671 1.0137 -0.259392 -0.253304 -0.234499 -0.202451 -0.157073 -0.098796 -0.0286009 0.0519709 0.140857 0.235554 0.33324 0.430927 0.525624 0.614509 0.695081 0.765276 0.823554 0.868931 0.90098 0.919784 0.925872 -0.187501 -0.18215 -0.165624 -0.137458 -0.0975786 -0.0463617 0.0153291 0.0861393 0.164256 0.24748 0.333332 0.419183 0.502407 0.580524 0.651334 0.713025 0.764242 0.804122 0.832288 0.848814 0.854164 -0.127992 -0.123253 -0.108614 -0.0836649 -0.0483398 -0.0029721 0.0516733 0.114397 0.183592 0.257312 0.333359 0.409405 0.483125 0.552321 0.615044 0.669689 0.715057 0.750382 0.775331 0.78997 0.79471 -0.0782024 -0.0739748 -0.0609169 -0.0386621 -0.00715196 0.0333161 0.08206 0.138009 0.199732 0.26549 0.333324 0.401158 0.466916 0.528639 0.584588 0.633332 0.6738 0.70531 0.727565 0.740623 0.74485 -0.0360072 -0.0322129 -0.0204936 -0.000519989 0.0277603 0.0640802 0.107828 0.158042 0.213438 0.272455 0.333336 0.394217 0.453234 0.50863 0.558845 0.602592 0.638912 0.667192 0.687166 0.698885 0.702679 1.77133e-05 0.00344199 0.0140186 0.0320445 0.0575671 0.0903455 0.129827 0.175145 0.225139 0.278402 0.333346 0.38829 0.441553 0.491547 0.536865 0.576346 0.609125 0.634647 0.652673 0.66325 0.666674 -0.999273 -0.985578 -0.943277 -0.871183 -0.769107 -0.638012 -0.480108 -0.298862 -0.0989139 0.114107 0.333853 0.553599 0.76662 0.966568 1.14781 1.30572 1.43681 1.53889 1.61098 1.65328 1.66698 -0.768582 -0.757262 -0.722298 -0.662707 -0.578334 -0.469975 -0.339456 -0.189644 -0.0243724 0.151704 0.33334 0.514975 0.691052 0.856323 1.00614 1.13665 1.24501 1.32939 1.38898 1.42394 1.43526 -0.592536 -0.583024 -0.553644 -0.503572 -0.432676 -0.341625 -0.231954 -0.106071 0.0328022 0.180754 0.333377 0.486 0.633953 0.772825 0.898709 1.00838 1.09943 1.17033 1.2204 1.24978 1.25929 -0.455768 -0.447663 -0.422628 -0.37996 -0.319548 -0.241961 -0.148507 -0.0412389 0.077098 0.203172 0.333226 0.463279 0.589353 0.70769 0.814959 0.908412 0.985999 1.04641 1.08908 1.11411 1.12222 -0.346728 -0.33974 -0.318157 -0.281372 -0.229289 -0.162399 -0.0818302 0.0106486 0.11267 0.221361 0.333484 0.445607 0.554299 0.65632 0.748799 0.829367 0.896257 0.94834 0.985125 1.00671 1.0137 -0.259392 -0.253304 -0.234499 -0.202451 -0.157073 -0.098796 -0.0286009 0.0519709 0.140857 0.235554 0.33324 0.430927 0.525624 0.614509 0.695081 0.765276 0.823554 0.868931 0.90098 0.919784 0.925872 -0.187501 -0.18215 -0.165624 -0.137458 -0.0975786 -0.0463617 0.0153291 0.0861393 0.164256 0.24748 0.333332 0.419183 0.502407 0.580524 0.651334 0.713025 0.764242 0.804122 0.832288 0.848814 0.854164 -0.127992 -0.123253 -0.108614 -0.0836649 -0.0483398 -0.0029721 0.0516733 0.114397 0.183592 0.257312 0.333359 0.409405 0.483125 0.552321 0.615044 0.669689 0.715057 0.750382 0.775331 0.78997 0.79471 -0.0782024 -0.0739748 -0.0609169 -0.0386621 -0.00715196 0.0333161 0.08206 0.138009 0.199732 0.26549 0.333324 0.401158 0.466916 0.528639 0.584588 0.633332 0.6738 0.70531 0.727565 0.740623 0.74485 -0.0360072 -0.0322129 -0.0204936 -0.000519989 0.0277603 0.0640802 0.107828 0.158042 0.213438 0.272455 0.333336 0.394217 0.453234 0.50863 0.558845 0.602592 0.638912 0.667192 0.687166 0.698885 0.702679 1.77133e-05 0.00344199 0.0140186 0.0320445 0.0575671 0.0903455 0.129827 0.175145 0.225139 0.278402 0.333346 0.38829 0.441553 0.491547 0.536865 0.576346 0.609125 0.634647 0.652673 0.66325 0.666674 -0.999273 -0.985578 -0.943277 -0.871183 -0.769107 -0.638012 -0.480108 -0.298862 -0.0989139 0.114107 0.333853 0.553599 0.76662 0.966568 1.14781 1.30572 1.43681 1.53889 1.61098 1.65328 1.66698 -0.768582 -0.757262 -0.722298 -0.662707 -0.578334 -0.469975 -0.339456 -0.189644 -0.0243724 0.151704 0.33334 0.514975 0.691052 0.856323 1.00614 1.13665 1.24501 1.32939 1.38898 1.42394 1.43526 -0.592536 -0.583024 -0.553644 -0.503572 -0.432676 -0.341625 -0.231954 -0.106071 0.0328022 0.180754 0.333377 0.486 0.633953 0.772825 0.898709 1.00838 1.09943 1.17033 1.2204 1.24978 1.25929 -0.455768 -0.447663 -0.422628 -0.37996 -0.319548 -0.241961 -0.148507 -0.0412389 0.077098 0.203172 0.333226 0.463279 0.589353 0.70769 0.814959 0.908412 0.985999 1.04641 1.08908 1.11411 1.12222 -0.346728 -0.33974 -0.318157 -0.281372 -0.229289 -0.162399 -0.0818302 0.0106486 0.11267 0.221361 0.333484 0.445607 0.554299 0.65632 0.748799 0.829367 0.896257 0.94834 0.985125 1.00671 1.0137 -0.259392 -0.253304 -0.234499 -0.202451 -0.157073 -0.098796 -0.0286009 0.0519709 0.140857 0.235554 0.33324 0.430927 0.525624 0.614509 0.695081 0.765276 0.823554 0.868931 0.90098 0.919784 0.925872 -0.187501 -0.18215 -0.165624 -0.137458 -0.0975786 -0.0463617 0.0153291 0.0861393 0.164256 0.24748 0.333332 0.419183 0.502407 0.580524 0.651334 0.713025 0.764242 0.804122 0.832288 0.848814 0.854164 -0.127992 -0.123253 -0.108614 -0.0836649 -0.0483398 -0.0029721 0.0516733 0.114397 0.183592 0.257312 0.333359 0.409405 0.483125 0.552321 0.615044 0.669689 0.715057 0.750382 0.775331 0.78997 0.79471 -0.0782024 -0.0739748 -0.0609169 -0.0386621 -0.00715196 0.0333161 0.08206 0.138009 0.199732 0.26549 0.333324 0.401158 0.466916 0.528639 0.584588 0.633332 0.6738 0.70531 0.727565 0.740623 0.74485 -0.0360072 -0.0322129 -0.0204936 -0.000519989 0.0277603 0.0640802 0.107828 0.158042 0.213438 0.272455 0.333336 0.394217 0.453234 0.50863 0.558845 0.602592 0.638912 0.667192 0.687166 0.698885 0.702679 1.77133e-05 0.00344199 0.0140186 0.0320445 0.0575671 0.0903455 0.129827 0.175145 0.225139 0.278402 0.333346 0.38829 0.441553 0.491547 0.536865 0.576346 0.609125 0.634647 0.652673 0.66325 0.666674 -0.999273 -0.985578 -0.943277 -0.871183 -0.769107 -0.638012 -0.480108 -0.298862 -0.0989139 0.114107 0.333853 0.553599 0.76662 0.966568 1.14781 1.30572 1.43681 1.53889 1.61098 1.65328 1.66698 -0.768582 -0.757262 -0.722298 -0.662707 -0.578334 -0.469975 -0.339456 -0.189644 -0.0243724 0.151704 0.33334 0.514975 0.691052 0.856323 1.00614 1.13665 1.24501 1.32939 1.38898 1.42394 1.43526 -0.592536 -0.583024 -0.553644 -0.503572 -0.432676 -0.341625 -0.231954 -0.106071 0.0328022 0.180754 0.333377 0.486 0.633953 0.772825 0.898709 1.00838 1.09943 1.17033 1.2204 1.24978 1.25929 -0.455768 -0.447663 -0.422628 -0.37996 -0.319548 -0.241961 -0.148507 -0.0412389 0.077098 0.203172 0.333226 0.463279 0.589353 0.70769 0.814959 0.908412 0.985999 1.04641 1.08908 1.11411 1.12222 -0.346728 -0.33974 -0.318157 -0.281372 -0.229289 -0.162399 -0.0818302 0.0106486 0.11267 0.221361 0.333484 0.445607 0.554299 0.65632 0.748799 0.829367 0.896257 0.94834 0.985125 1.00671 1.0137 -0.259392 -0.253304 -0.234499 -0.202451 -0.157073 -0.098796 -0.0286009 0.0519709 0.140857 0.235554 0.33324 0.430927 0.525624 0.614509 0.695081 0.765276 0.823554 0.868931 0.90098 0.919784 0.925872 -0.187501 -0.18215 -0.165624 -0.137458 -0.0975786 -0.0463617 0.0153291 0.0861393 0.164256 0.24748 0.333332 0.419183 0.502407 0.580524 0.651334 0.713025 0.764242 0.804122 0.832288 0.848814 0.854164 -0.127992 -0.123253 -0.108614 -0.0836649 -0.0483398 -0.0029721 0.0516733 0.114397 0.183592 0.257312 0.333359 0.409405 0.483125 0.552321 0.615044 0.669689 0.715057 0.750382 0.775331 0.78997 0.79471 -0.0782024 -0.0739748 -0.0609169 -0.0386621 -0.00715196 0.0333161 0.08206 0.138009 0.199732 0.26549 0.333324 0.401158 0.466916 0.528639 0.584588 0.633332 0.6738 0.70531 0.727565 0.740623 0.74485 -0.0360072 -0.0322129 -0.0204936 -0.000519989 0.0277603 0.0640802 0.107828 0.158042 0.213438 0.272455 0.333336 0.394217 0.453234 0.50863 0.558845 0.602592 0.638912 0.667192 0.687166 0.698885 0.702679 1.77133e-05 0.00344199 0.0140186 0.0320445 0.0575671 0.0903455 0.129827 0.175145 0.225139 0.278402 0.333346 0.38829 0.441553 0.491547 0.536865 0.576346 0.609125 0.634647 0.652673 0.66325 0.666674 -0.999273 -0.985578 -0.943277 -0.871183 -0.769107 -0.638012 -0.480108 -0.298862 -0.0989139 0.114107 0.333853 0.553599 0.76662 0.966568 1.14781 1.30572 1.43681 1.53889 1.61098 1.65328 1.66698 -0.768582 -0.757262 -0.722298 -0.662707 -0.578334 -0.469975 -0.339456 -0.189644 -0.0243724 0.151704 0.33334 0.514975 0.691052 0.856323 1.00614 1.13665 1.24501 1.32939 1.38898 1.42394 1.43526 -0.592536 -0.583024 -0.553644 -0.503572 -0.432676 -0.341625 -0.231954 -0.106071 0.0328022 0.180754 0.333377 0.486 0.633953 0.772825 0.898709 1.00838 1.09943 1.17033 1.2204 1.24978 1.25929 -0.455768 -0.447663 -0.422628 -0.37996 -0.319548 -0.241961 -0.148507 -0.0412389 0.077098 0.203172 0.333226 0.463279 0.589353 0.70769 0.814959 0.908412 0.985999 1.04641 1.08908 1.11411 1.12222 -0.346728 -0.33974 -0.318157 -0.281372 -0.229289 -0.162399 -0.0818302 0.0106486 0.11267 0.221361 0.333484 0.445607 0.554299 0.65632 0.748799 0.829367 0.896257 0.94834 0.985125 1.00671 1.0137 -0.259392 -0.253304 -0.234499 -0.202451 -0.157073 -0.098796 -0.0286009 0.0519709 0.140857 0.235554 0.33324 0.430927 0.525624 0.614509 0.695081 0.765276 0.823554 0.868931 0.90098 0.919784 0.925872 -0.187501 -0.18215 -0.165624 -0.137458 -0.0975786 -0.0463617 0.0153291 0.0861393 0.164256 0.24748 0.333332 0.419183 0.502407 0.580524 0.651334 0.713025 0.764242 0.804122 0.832288 0.848814 0.854164 -0.127992 -0.123253 -0.108614 -0.0836649 -0.0483398 -0.0029721 0.0516733 0.114397 0.183592 0.257312 0.333359 0.409405 0.483125 0.552321 0.615044 0.669689 0.715057 0.750382 0.775331 0.78997 0.79471 -0.0782024 -0.0739748 -0.0609169 -0.0386621 -0.00715196 0.0333161 0.08206 0.138009 0.199732 0.26549 0.333324 0.401158 0.466916 0.528639 0.584588 0.633332 0.6738 0.70531 0.727565 0.740623 0.74485 -0.0360072 -0.0322129 -0.0204936 -0.000519989 0.0277603 0.0640802 0.107828 0.158042 0.213438 0.272455 0.333336 0.394217 0.453234 0.50863 0.558845 0.602592 0.638912 0.667192 0.687166 0.698885 0.702679 1.77133e-05 0.00344199 0.0140186 0.0320445 0.0575671 0.0903455 0.129827 0.175145 0.225139 0.278402 0.333346 0.38829 0.441553 0.491547 0.536865 0.576346 0.609125 0.634647 0.652673 0.66325 0.666674 -0.999273 -0.985578 -0.943277 -0.871183 -0.769107 -0.638012 -0.480108 -0.298862 -0.0989139 0.114107 0.333853 0.553599 0.76662 0.966568 1.14781 1.30572 1.43681 1.53889 1.61098 1.65328 1.66698 -0.768582 -0.757262 -0.722298 -0.662707 -0.578334 -0.469975 -0.339456 -0.189644 -0.0243724 0.151704 0.33334 0.514975 0.691052 0.856323 1.00614 1.13665 1.24501 1.32939 1.38898 1.42394 1.43526 -0.592536 -0.583024 -0.553644 -0.503572 -0.432676 -0.341625 -0.231954 -0.106071 0.0328022 0.180754 0.333377 0.486 0.633953 0.772825 0.898709 1.00838 1.09943 1.17033 1.2204 1.24978 1.25929 -0.455768 -0.447663 -0.422628 -0.37996 -0.319548 -0.241961 -0.148507 -0.0412389 0.077098 0.203172 0.333226 0.463279 0.589353 0.70769 0.814959 0.908412 0.985999 1.04641 1.08908 1.11411 1.12222 -0.346728 -0.33974 -0.318157 -0.281372 -0.229289 -0.162399 -0.0818302 0.0106486 0.11267 0.221361 0.333484 0.445607 0.554299 0.65632 0.748799 0.829367 0.896257 0.94834 0.985125 1.00671 1.0137 -0.259392 -0.253304 -0.234499 -0.202451 -0.157073 -0.098796 -0.0286009 0.0519709 0.140857 0.235554 0.33324 0.430927 0.525624 0.614509 0.695081 0.765276 0.823554 0.868931 0.90098 0.919784 0.925872 -0.187501 -0.18215 -0.165624 -0.137458 -0.0975786 -0.0463617 0.0153291 0.0861393 0.164256 0.24748 0.333332 0.419183 0.502407 0.580524 0.651334 0.713025 0.764242 0.804122 0.832288 0.848814 0.854164 -0.127992 -0.123253 -0.108614 -0.0836649 -0.0483398 -0.0029721 0.0516733 0.114397 0.183592 0.257312 0.333359 0.409405 0.483125 0.552321 0.615044 0.669689 0.715057 0.750382 0.775331 0.78997 0.79471 -0.0782024 -0.0739748 -0.0609169 -0.0386621 -0.00715196 0.0333161 0.08206 0.138009 0.199732 0.26549 0.333324 0.401158 0.466916 0.528639 0.584588 0.633332 0.6738 0.70531 0.727565 0.740623 0.74485 -0.0360072 -0.0322129 -0.0204936 -0.000519989 0.0277603 0.0640802 0.107828 0.158042 0.213438 0.272455 0.333336 0.394217 0.453234 0.50863 0.558845 0.602592 0.638912 0.667192 0.687166 0.698885 0.702679 1.77133e-05 0.00344199 0.0140186 0.0320445 0.0575671 0.0903455 0.129827 0.175145 0.225139 0.278402 0.333346 0.38829 0.441553 0.491547 0.536865 0.576346 0.609125 0.634647 0.652673 0.66325 0.666674 -0.999273 -0.985578 -0.943277 -0.871183 -0.769107 -0.638012 -0.480108 -0.298862 -0.0989139 0.114107 0.333853 0.553599 0.76662 0.966568 1.14781 1.30572 1.43681 1.53889 1.61098 1.65328 1.66698 -0.768582 -0.757262 -0.722298 -0.662707 -0.578334 -0.469975 -0.339456 -0.189644 -0.0243724 0.151704 0.33334 0.514975 0.691052 0.856323 1.00614 1.13665 1.24501 1.32939 1.38898 1.42394 1.43526 -0.592536 -0.583024 -0.553644 -0.503572 -0.432676 -0.341625 -0.231954 -0.106071 0.0328022 0.180754 0.333377 0.486 0.633953 0.772825 0.898709 1.00838 1.09943 1.17033 1.2204 1.24978 1.25929 -0.455768 -0.447663 -0.422628 -0.37996 -0.319548 -0.241961 -0.148507 -0.0412389 0.077098 0.203172 0.333226 0.463279 0.589353 0.70769 0.814959 0.908412 0.985999 1.04641 1.08908 1.11411 1.12222 -0.346728 -0.33974 -0.318157 -0.281372 -0.229289 -0.162399 -0.0818302 0.0106486 0.11267 0.221361 0.333484 0.445607 0.554299 0.65632 0.748799 0.829367 0.896257 0.94834 0.985125 1.00671 1.0137 -0.259392 -0.253304 -0.234499 -0.202451 -0.157073 -0.098796 -0.0286009 0.0519709 0.140857 0.235554 0.33324 0.430927 0.525624 0.614509 0.695081 0.765276 0.823554 0.868931 0.90098 0.919784 0.925872 -0.187501 -0.18215 -0.165624 -0.137458 -0.0975786 -0.0463617 0.0153291 0.0861393 0.164256 0.24748 0.333332 0.419183 0.502407 0.580524 0.651334 0.713025 0.764242 0.804122 0.832288 0.848814 0.854164 -0.127992 -0.123253 -0.108614 -0.0836649 -0.0483398 -0.0029721 0.0516733 0.114397 0.183592 0.257312 0.333359 0.409405 0.483125 0.552321 0.615044 0.669689 0.715057 0.750382 0.775331 0.78997 0.79471 -0.0782024 -0.0739748 -0.0609169 -0.0386621 -0.00715196 0.0333161 0.08206 0.138009 0.199732 0.26549 0.333324 0.401158 0.466916 0.528639 0.584588 0.633332 0.6738 0.70531 0.727565 0.740623 0.74485 -0.0360072 -0.0322129 -0.0204936 -0.000519989 0.0277603 0.0640802 0.107828 0.158042 0.213438 0.272455 0.333336 0.394217 0.453234 0.50863 0.558845 0.602592 0.638912 0.667192 0.687166 0.698885 0.702679 1.77133e-05 0.00344199 0.0140186 0.0320445 0.0575671 0.0903455 0.129827 0.175145 0.225139 0.278402 0.333346 0.38829 0.441553 0.491547 0.536865 0.576346 0.609125 0.634647 0.652673 0.66325 0.666674 -0.999273 -0.985578 -0.943277 -0.871183 -0.769107 -0.638012 -0.480108 -0.298862 -0.0989139 0.114107 0.333853 0.553599 0.76662 0.966568 1.14781 1.30572 1.43681 1.53889 1.61098 1.65328 1.66698 -0.768582 -0.757262 -0.722298 -0.662707 -0.578334 -0.469975 -0.339456 -0.189644 -0.0243724 0.151704 0.33334 0.514975 0.691052 0.856323 1.00614 1.13665 1.24501 1.32939 1.38898 1.42394 1.43526 -0.592536 -0.583024 -0.553644 -0.503572 -0.432676 -0.341625 -0.231954 -0.106071 0.0328022 0.180754 0.333377 0.486 0.633953 0.772825 0.898709 1.00838 1.09943 1.17033 1.2204 1.24978 1.25929 -0.455768 -0.447663 -0.422628 -0.37996 -0.319548 -0.241961 -0.148507 -0.0412389 0.077098 0.203172 0.333226 0.463279 0.589353 0.70769 0.814959 0.908412 0.985999 1.04641 1.08908 1.11411 1.12222 -0.346728 -0.33974 -0.318157 -0.281372 -0.229289 -0.162399 -0.0818302 0.0106486 0.11267 0.221361 0.333484 0.445607 0.554299 0.65632 0.748799 0.829367 0.896257 0.94834 0.985125 1.00671 1.0137 -0.259392 -0.253304 -0.234499 -0.202451 -0.157073 -0.098796 -0.0286009 0.0519709 0.140857 0.235554 0.33324 0.430927 0.525624 0.614509 0.695081 0.765276 0.823554 0.868931 0.90098 0.919784 0.925872 -0.187501 -0.18215 -0.165624 -0.137458 -0.0975786 -0.0463617 0.0153291 0.0861393 0.164256 0.24748 0.333332 0.419183 0.502407 0.580524 0.651334 0.713025 0.764242 0.804122 0.832288 0.848814 0.854164 -0.127992 -0.123253 -0.108614 -0.0836649 -0.0483398 -0.0029721 0.0516733 0.114397 0.183592 0.257312 0.333359 0.409405 0.483125 0.552321 0.615044 0.669689 0.715057 0.750382 0.775331 0.78997 0.79471 -0.0782024 -0.0739748 -0.0609169 -0.0386621 -0.00715196 0.0333161 0.08206 0.138009 0.199732 0.26549 0.333324 0.401158 0.466916 0.528639 0.584588 0.633332 0.6738 0.70531 0.727565 0.740623 0.74485 -0.0360072 -0.0322129 -0.0204936 -0.000519989 0.0277603 0.0640802 0.107828 0.158042 0.213438 0.272455 0.333336 0.394217 0.453234 0.50863 0.558845 0.602592 0.638912 0.667192 0.687166 0.698885 0.702679 1.77133e-05 0.00344199 0.0140186 0.0320445 0.0575671 0.0903455 0.129827 0.175145 0.225139 0.278402 0.333346 0.38829 0.441553 0.491547 0.536865 0.576346 0.609125 0.634647 0.652673 0.66325 0.666674 -0.999273 -0.985578 -0.943277 -0.871183 -0.769107 -0.638012 -0.480108 -0.298862 -0.0989139 0.114107 0.333853 0.553599 0.76662 0.966568 1.14781 1.30572 1.43681 1.53889 1.61098 1.65328 1.66698 -0.768582 -0.757262 -0.722298 -0.662707 -0.578334 -0.469975 -0.339456 -0.189644 -0.0243724 0.151704 0.33334 0.514975 0.691052 0.856323 1.00614 1.13665 1.24501 1.32939 1.38898 1.42394 1.43526 -0.592536 -0.583024 -0.553644 -0.503572 -0.432676 -0.341625 -0.231954 -0.106071 0.0328022 0.180754 0.333377 0.486 0.633953 0.772825 0.898709 1.00838 1.09943 1.17033 1.2204 1.24978 1.25929 -0.455768 -0.447663 -0.422628 -0.37996 -0.319548 -0.241961 -0.148507 -0.0412389 0.077098 0.203172 0.333226 0.463279 0.589353 0.70769 0.814959 0.908412 0.985999 1.04641 1.08908 1.11411 1.12222 -0.346728 -0.33974 -0.318157 -0.281372 -0.229289 -0.162399 -0.0818302 0.0106486 0.11267 0.221361 0.333484 0.445607 0.554299 0.65632 0.748799 0.829367 0.896257 0.94834 0.985125 1.00671 1.0137 -0.259392 -0.253304 -0.234499 -0.202451 -0.157073 -0.098796 -0.0286009 0.0519709 0.140857 0.235554 0.33324 0.430927 0.525624 0.614509 0.695081 0.765276 0.823554 0.868931 0.90098 0.919784 0.925872 -0.187501 -0.18215 -0.165624 -0.137458 -0.0975786 -0.0463617 0.0153291 0.0861393 0.164256 0.24748 0.333332 0.419183 0.502407 0.580524 0.651334 0.713025 0.764242 0.804122 0.832288 0.848814 0.854164 -0.127992 -0.123253 -0.108614 -0.0836649 -0.0483398 -0.0029721 0.0516733 0.114397 0.183592 0.257312 0.333359 0.409405 0.483125 0.552321 0.615044 0.669689 0.715057 0.750382 0.775331 0.78997 0.79471 -0.0782024 -0.0739748 -0.0609169 -0.0386621 -0.00715196 0.0333161 0.08206 0.138009 0.199732 0.26549 0.333324 0.401158 0.466916 0.528639 0.584588 0.633332 0.6738 0.70531 0.727565 0.740623 0.74485 -0.0360072 -0.0322129 -0.0204936 -0.000519989 0.0277603 0.0640802 0.107828 0.158042 0.213438 0.272455 0.333336 0.394217 0.453234 0.50863 0.558845 0.602592 0.638912 0.667192 0.687166 0.698885 0.702679 1.77133e-05 0.00344199 0.0140186 0.0320445 0.0575671 0.0903455 0.129827 0.175145 0.225139 0.278402 0.333346 0.38829 0.441553 0.491547 0.536865 0.576346 0.609125 0.634647 0.652673 0.66325 0.666674 </DataArray> 
<DataArray type="Float32" Name="sigma_yy" format="ascii" NumberOfComponents="1"> 